<PP_INFO>
Generated using Vanderbilt code, version   7  3  6                              
Author: unknown    Generation date:    8    4   17                              
Automatically converted from original format                                    
    1        The Pseudo was generated with a Scalar-Relativistic Calculation
  3.00000000000E+00    Local Potential cutoff radius
nl pn  l   occ               Rcut            Rcut US             E pseu
5S  5  0  2.00      1.20000000000      2.60000000000     -2.47490300060
5P  5  1  6.00      1.20000000000      2.00000000000     -1.37714143594
5D  5  2  0.00      1.20000000000      2.20000000000     -0.14837886283
6S  6  0  2.00      1.20000000000      2.60000000000     -0.23739477760
6P  6  1  0.00      1.20000000000      2.00000000000     -0.09137617534
</PP_INFO>


<PP_HEADER>
   0                   Version Number
  Ba                   Element
   US                  Ultrasoft pseudopotential
    T                  Nonlinear Core Correction
SLA  PW   PBE  PBE     PBE  Exchange-Correlation functional
   10.00000000000      Z valence
  -90.05998338563      Total energy
    0.00000    0.00000 Suggested cutoff for wfc and rho
    2                  Max angular momentum component
  907                  Number of points in mesh
    5    6             Number of Wavefunctions, Number of Projectors
 Wavefunctions         nl  l   occ
                       5S  0  2.00
                       5P  1  6.00
                       5D  2  0.00
                       6S  0  2.00
                       6P  1  0.00
</PP_HEADER>


<PP_MESH>
  <PP_R>
  0.00000000000E+00  7.56621590713E-07  1.52617657157E-06  2.30888602082E-06
  3.10497479575E-06  3.91467159725E-06  4.73820903555E-06  5.57582369702E-06
  6.42775621214E-06  7.29425132463E-06  8.17555796178E-06  9.07192930593E-06
  9.98362286722E-06  1.09109005576E-05  1.18540287659E-05  1.28132784347E-05
  1.37889251379E-05  1.47812491598E-05  1.57905355760E-05  1.68170743349E-05
  1.78611603413E-05  1.89230935407E-05  2.00031790062E-05  2.11017270253E-05
  2.22190531897E-05  2.33554784855E-05  2.45113293857E-05  2.56869379439E-05
  2.68826418897E-05  2.80987847257E-05  2.93357158263E-05  3.05937905377E-05
  3.18733702806E-05  3.31748226533E-05  3.44985215381E-05  3.58448472079E-05
  3.72141864361E-05  3.86069326073E-05  4.00234858305E-05  4.14642530542E-05
  4.29296481828E-05  4.44200921960E-05  4.59360132695E-05  4.74778468982E-05
  4.90460360209E-05  5.06410311480E-05  5.22632904909E-05  5.39132800932E-05
  5.55914739650E-05  5.72983542190E-05  5.90344112087E-05  6.08001436698E-05
  6.25960588630E-05  6.44226727201E-05  6.62805099918E-05  6.81701043989E-05
  7.00919987851E-05  7.20467452737E-05  7.40349054255E-05  7.60570504003E-05
  7.81137611214E-05  8.02056284419E-05  8.23332533147E-05  8.44972469654E-05
  8.66982310675E-05  8.89368379211E-05  9.12137106346E-05  9.35295033096E-05
  9.58848812283E-05  9.82805210454E-05  1.00717110982E-04  1.03195351023E-04
  1.05715953118E-04  1.08279641389E-04  1.10887152332E-04  1.13539235037E-04
  1.16236651393E-04  1.18980176318E-04  1.21770597973E-04  1.24608717991E-04
  1.27495351710E-04  1.30431328404E-04  1.33417491522E-04  1.36454698931E-04
  1.39543823162E-04  1.42685751661E-04  1.45881387042E-04  1.49131647350E-04
  1.52437466322E-04  1.55799793656E-04  1.59219595283E-04  1.62697853646E-04
  1.66235567981E-04  1.69833754606E-04  1.73493447209E-04  1.77215697150E-04
  1.81001573759E-04  1.84852164645E-04  1.88768576008E-04  1.92751932958E-04
  1.96803379835E-04  2.00924080543E-04  2.05115218878E-04  2.09377998874E-04
  2.13713645145E-04  2.18123403237E-04  2.22608539990E-04  2.27170343897E-04
  2.31810125474E-04  2.36529217643E-04  2.41328976106E-04  2.46210779741E-04
  2.51176030996E-04  2.56226156292E-04  2.61362606432E-04  2.66586857018E-04
  2.71900408878E-04  2.77304788490E-04  2.82801548430E-04  2.88392267809E-04
  2.94078552734E-04  2.99862036764E-04  3.05744381381E-04  3.11727276471E-04
  3.17812440802E-04  3.24001622525E-04  3.30296599671E-04  3.36699180667E-04
  3.43211204849E-04  3.49834542997E-04  3.56571097866E-04  3.63422804740E-04
  3.70391631979E-04  3.77479581595E-04  3.84688689818E-04  3.92021027684E-04
  3.99478701633E-04  4.07063854111E-04  4.14778664183E-04  4.22625348168E-04
  4.30606160264E-04  4.38723393204E-04  4.46979378913E-04  4.55376489176E-04
  4.63917136320E-04  4.72603773907E-04  4.81438897440E-04  4.90425045080E-04
  4.99564798373E-04  5.08860782992E-04  5.18315669495E-04  5.27932174087E-04
  5.37713059405E-04  5.47661135306E-04  5.57779259682E-04  5.68070339272E-04
  5.78537330506E-04  5.89183240348E-04  6.00011127160E-04  6.11024101586E-04
  6.22225327440E-04  6.33618022617E-04  6.45205460018E-04  6.56990968490E-04
  6.68977933782E-04  6.81169799516E-04  6.93570068180E-04  7.06182302130E-04
  7.19010124618E-04  7.32057220829E-04  7.45327338941E-04  7.58824291202E-04
  7.72551955025E-04  7.86514274103E-04  8.00715259539E-04  8.15158991003E-04
  8.29849617898E-04  8.44791360557E-04  8.59988511454E-04  8.75445436437E-04
  8.91166575980E-04  9.07156446463E-04  9.23419641466E-04  9.39960833090E-04
  9.56784773301E-04  9.73896295289E-04  9.91300314865E-04  1.00900183187E-03
  1.02700593160E-03  1.04531778628E-03  1.06394265657E-03  1.08288589302E-03
  1.10215293767E-03  1.12174932555E-03  1.14168068633E-03  1.16195274591E-03
  1.18257132805E-03  1.20354235608E-03  1.22487185457E-03  1.24656595107E-03
  1.26863087787E-03  1.29107297380E-03  1.31389868604E-03  1.33711457197E-03
  1.36072730107E-03  1.38474365683E-03  1.40917053866E-03  1.43401496395E-03
  1.45928407002E-03  1.48498511619E-03  1.51112548588E-03  1.53771268871E-03
  1.56475436266E-03  1.59225827628E-03  1.62023233093E-03  1.64868456300E-03
  1.67762314627E-03  1.70705639423E-03  1.73699276249E-03  1.76744085119E-03
  1.79840940746E-03  1.82990732799E-03  1.86194366151E-03  1.89452761144E-03
  1.92766853852E-03  1.96137596350E-03  1.99565956986E-03  2.03052920663E-03
  2.06599489117E-03  2.10206681210E-03  2.13875533217E-03  2.17607099129E-03
  2.21402450952E-03  2.25262679018E-03  2.29188892295E-03  2.33182218709E-03
  2.37243805464E-03  2.41374819377E-03  2.45576447207E-03  2.49849896002E-03
  2.54196393439E-03  2.58617188184E-03  2.63113550245E-03  2.67686771341E-03
  2.72338165269E-03  2.77069068284E-03  2.81880839484E-03  2.86774861198E-03
  2.91752539382E-03  2.96815304028E-03  3.01964609570E-03  3.07201935304E-03
  3.12528785812E-03  3.17946691395E-03  3.23457208513E-03  3.29061920230E-03
  3.34762436672E-03  3.40560395487E-03  3.46457462316E-03  3.52455331273E-03
  3.58555725429E-03  3.64760397309E-03  3.71071129395E-03  3.77489734639E-03
  3.84018056982E-03  3.90657971885E-03  3.97411386866E-03  4.04280242050E-03
  4.11266510728E-03  4.18372199919E-03  4.25599350950E-03  4.32950040041E-03
  4.40426378904E-03  4.48030515345E-03  4.55764633887E-03  4.63630956391E-03
  4.71631742700E-03  4.79769291285E-03  4.88045939906E-03  4.96464066284E-03
  5.05026088784E-03  5.13734467110E-03  5.22591703009E-03  5.31600340995E-03
  5.40762969075E-03  5.50082219494E-03  5.59560769493E-03  5.69201342076E-03
  5.79006706793E-03  5.88979680535E-03  5.99123128345E-03  6.09439964239E-03
  6.19933152044E-03  6.30605706250E-03  6.41460692875E-03  6.52501230348E-03
  6.63730490400E-03  6.75151698981E-03  6.86768137184E-03  6.98583142185E-03
  7.10600108208E-03  7.22822487493E-03  7.35253791295E-03  7.47897590886E-03
  7.60757518585E-03  7.73837268801E-03  7.87140599093E-03  8.00671331249E-03
  8.14433352388E-03  8.28430616072E-03  8.42667143444E-03  8.57147024382E-03
  8.71874418677E-03  8.86853557224E-03  9.02088743239E-03  9.17584353496E-03
  9.33344839585E-03  9.49374729188E-03  9.65678627383E-03  9.82261217963E-03
  9.99127264786E-03  1.01628161314E-02  1.03372919114E-02  1.05147501114E-02
  1.06952417116E-02  1.08788185638E-02  1.10655334061E-02  1.12554398781E-02
  1.14485925361E-02  1.16450468693E-02  1.18448593151E-02  1.20480872759E-02
  1.22547891350E-02  1.24650242739E-02  1.26788530891E-02  1.28963370095E-02
  1.31175385139E-02  1.33425211494E-02  1.35713495490E-02  1.38040894508E-02
  1.40408077164E-02  1.42815723503E-02  1.45264525197E-02  1.47755185738E-02
  1.50288420645E-02  1.52864957667E-02  1.55485536994E-02  1.58150911467E-02
  1.60861846797E-02  1.63619121783E-02  1.66423528537E-02  1.69275872710E-02
  1.72176973726E-02  1.75127665015E-02  1.78128794254E-02  1.81181223609E-02
  1.84285829983E-02  1.87443505271E-02  1.90655156611E-02  1.93921706648E-02
  1.97244093799E-02  2.00623272522E-02  2.04060213589E-02  2.07555904367E-02
  2.11111349101E-02  2.14727569200E-02  2.18405603534E-02  2.22146508733E-02
  2.25951359485E-02  2.29821248850E-02  2.33757288574E-02  2.37760609403E-02
  2.41832361415E-02  2.45973714344E-02  2.50185857923E-02  2.54470002217E-02
  2.58827377979E-02  2.63259236999E-02  2.67766852463E-02  2.72351519322E-02
  2.77014554664E-02  2.81757298086E-02  2.86581112089E-02  2.91487382459E-02
  2.96477518675E-02  3.01552954304E-02  3.06715147423E-02  3.11965581028E-02
  3.17305763468E-02  3.22737228874E-02  3.28261537601E-02  3.33880276676E-02
  3.39595060254E-02  3.45407530082E-02  3.51319355969E-02  3.57332236269E-02
  3.63447898366E-02  3.69668099172E-02  3.75994625629E-02  3.82429295227E-02
  3.88973956521E-02  3.95630489667E-02  4.02400806956E-02  4.09286853371E-02
  4.16290607139E-02  4.23414080303E-02  4.30659319299E-02  4.38028405545E-02
  4.45523456035E-02  4.53146623953E-02  4.60900099288E-02  4.68786109463E-02
  4.76806919976E-02  4.84964835050E-02  4.93262198298E-02  5.01701393390E-02
  5.10284844745E-02  5.19015018221E-02  5.27894421829E-02  5.36925606450E-02
  5.46111166567E-02  5.55453741016E-02  5.64956013735E-02  5.74620714546E-02
  5.84450619928E-02  5.94448553825E-02  6.04617388448E-02  6.14960045107E-02
  6.25479495048E-02  6.36178760304E-02  6.47060914567E-02  6.58129084071E-02
  6.69386448485E-02  6.80836241833E-02  6.92481753419E-02  7.04326328772E-02
  7.16373370611E-02  7.28626339817E-02  7.41088756432E-02  7.53764200665E-02
  7.66656313928E-02  7.79768799874E-02  7.93105425468E-02  8.06670022064E-02
  8.20466486507E-02  8.34498782256E-02  8.48770940517E-02  8.63287061404E-02
  8.78051315120E-02  8.93067943148E-02  9.08341259474E-02  9.23875651827E-02
  9.39675582938E-02  9.55745591820E-02  9.72090295076E-02  9.88714388224E-02
  1.00562264704E-01  1.02281992895E-01  1.04031117439E-01  1.05810140826E-01
  1.07619574135E-01  1.09459937181E-01  1.11331758665E-01  1.13235576325E-01
  1.15171937091E-01  1.17141397241E-01  1.19144522564E-01  1.21181888520E-01
  1.23254080402E-01  1.25361693513E-01  1.27505333329E-01  1.29685615676E-01
  1.31903166906E-01  1.34158624080E-01  1.36452635147E-01  1.38785859131E-01
  1.41158966323E-01  1.43572638471E-01  1.46027568975E-01  1.48524463090E-01
  1.51064038126E-01  1.53647023652E-01  1.56274161711E-01  1.58946207029E-01
  1.61663927232E-01  1.64428103069E-01  1.67239528635E-01  1.70099011597E-01
  1.73007373429E-01  1.75965449648E-01  1.78974090051E-01  1.82034158964E-01
  1.85146535483E-01  1.88312113736E-01  1.91531803131E-01  1.94806528623E-01
  1.98137230977E-01  2.01524867039E-01  2.04970410012E-01  2.08474849733E-01
  2.12039192960E-01  2.15664463661E-01  2.19351703304E-01  2.23101971164E-01
  2.26916344618E-01  2.30795919463E-01  2.34741810226E-01  2.38755150485E-01
  2.42837093194E-01  2.46988811017E-01  2.51211496662E-01  2.55506363225E-01
  2.59874644538E-01  2.64317595523E-01  2.68836492555E-01  2.73432633825E-01
  2.78107339715E-01  2.82861953179E-01  2.87697840124E-01  2.92616389808E-01
  2.97619015234E-01  3.02707153560E-01  3.07882266509E-01  3.13145840792E-01
  3.18499388531E-01  3.23944447698E-01  3.29482582552E-01  3.35115384092E-01
  3.40844470513E-01  3.46671487670E-01  3.52598109554E-01  3.58626038768E-01
  3.64757007019E-01  3.70992775616E-01  3.77335135974E-01  3.83785910131E-01
  3.90346951269E-01  3.97020144250E-01  4.03807406150E-01  4.10710686821E-01
  4.17731969440E-01  4.24873271087E-01  4.32136643319E-01  4.39524172762E-01
  4.47037981712E-01  4.54680228738E-01  4.62453109312E-01  4.70358856432E-01
  4.78399741265E-01  4.86578073802E-01  4.94896203520E-01  5.03356520057E-01
  5.11961453898E-01  5.20713477074E-01  5.29615103871E-01  5.38668891555E-01
  5.47877441104E-01  5.57243397956E-01  5.66769452770E-01  5.76458342195E-01
  5.86312849664E-01  5.96335806184E-01  6.06530091158E-01  6.16898633206E-01
  6.27444411010E-01  6.38170454168E-01  6.49079844065E-01  6.60175714756E-01
  6.71461253871E-01  6.82939703527E-01  6.94614361261E-01  7.06488580975E-01
  7.18565773903E-01  7.30849409589E-01  7.43343016884E-01  7.56050184960E-01
  7.68974564340E-01  7.82119867947E-01  7.95489872174E-01  8.09088417964E-01
  8.22919411916E-01  8.36986827407E-01  8.51294705733E-01  8.65847157271E-01
  8.80648362658E-01  8.95702573994E-01  9.11014116064E-01  9.26587387576E-01
  9.42426862430E-01  9.58537091001E-01  9.74922701446E-01  9.91588401033E-01
  1.00853897750E+00  1.02577930041E+00  1.04331432258E+00  1.06114908148E+00
  1.07928870070E+00  1.09773839139E+00  1.11650345379E+00  1.13558927875E+00
  1.15500134924E+00  1.17474524200E+00  1.19482662904E+00  1.21525127937E+00
  1.23602506059E+00  1.25715394061E+00  1.27864398934E+00  1.30050138047E+00
  1.32273239319E+00  1.34534341405E+00  1.36834093876E+00  1.39173157405E+00
  1.41552203961E+00  1.43971916998E+00  1.46432991652E+00  1.48936134943E+00
  1.51482065974E+00  1.54071516144E+00  1.56705229350E+00  1.59383962208E+00
  1.62108484266E+00  1.64879578226E+00  1.67698040170E+00  1.70564679787E+00
  1.73480320608E+00  1.76445800239E+00  1.79461970606E+00  1.82529698196E+00
  1.85649864308E+00  1.88823365305E+00  1.92051112873E+00  1.95334034280E+00
  1.98673072648E+00  2.02069187216E+00  2.05523353623E+00  2.09036564184E+00
  2.12609828177E+00  2.16244172131E+00  2.19940640122E+00  2.23700294075E+00
  2.27524214065E+00  2.31413498631E+00  2.35369265088E+00  2.39392649853E+00
  2.43484808764E+00  2.47646917422E+00  2.51880171518E+00  2.56185787185E+00
  2.60565001342E+00  2.65019072054E+00  2.69549278889E+00  2.74156923287E+00
  2.78843328936E+00  2.83609842149E+00  2.88457832253E+00  2.93388691981E+00
  2.98403837876E+00  3.03504710690E+00  3.08692775806E+00  3.13969523655E+00
  3.19336470144E+00  3.24795157093E+00  3.30347152677E+00  3.35994051877E+00
  3.41737476938E+00  3.47579077835E+00  3.53520532747E+00  3.59563548538E+00
  3.65709861251E+00  3.71961236601E+00  3.78319470489E+00  3.84786389511E+00
  3.91363851489E+00  3.98053746000E+00  4.04857994921E+00  4.11778552981E+00
  4.18817408322E+00  4.25976583073E+00  4.33258133924E+00  4.40664152724E+00
  4.48196767080E+00  4.55858140966E+00  4.63650475346E+00  4.71576008808E+00
  4.79637018203E+00  4.87835819303E+00  4.96174767466E+00  5.04656258310E+00
  5.13282728403E+00  5.22056655962E+00  5.30980561569E+00  5.40057008887E+00
  5.49288605406E+00  5.58678003183E+00  5.68227899610E+00  5.77941038190E+00
  5.87820209318E+00  5.97868251088E+00  6.08088050110E+00  6.18482542333E+00
  6.29054713893E+00  6.39807601972E+00  6.50744295666E+00  6.61867936875E+00
  6.73181721206E+00  6.84688898891E+00  6.96392775718E+00  7.08296713986E+00
  7.20404133465E+00  7.32718512383E+00  7.45243388423E+00  7.57982359738E+00
  7.70939085990E+00  7.84117289394E+00  7.97520755793E+00  8.11153335745E+00
  8.25018945625E+00  8.39121568755E+00  8.53465256546E+00  8.68054129661E+00
  8.82892379201E+00  8.97984267909E+00  9.13334131392E+00  9.28946379369E+00
  9.44825496937E+00  9.60976045858E+00  9.77402665872E+00  9.94110076031E+00
  1.01110307605E+01  1.02838654769E+01  1.04596545615E+01  1.06384485152E+01
  1.08202987021E+01  1.10052573640E+01  1.11933776362E+01  1.13847135619E+01
  1.15793201082E+01  1.17772531818E+01  1.19785696451E+01  1.21833273323E+01
  1.23915850665E+01  1.26034026760E+01  1.28188410118E+01  1.30379619654E+01
  1.32608284859E+01  1.34875045985E+01  1.37180554229E+01  1.39525471918E+01
  1.41910472703E+01  1.44336241748E+01  1.46803475930E+01  1.49312884036E+01
  1.51865186972E+01  1.54461117964E+01  1.57101422774E+01  1.59786859909E+01
  1.62518200845E+01  1.65296230242E+01  1.68121746175E+01  1.70995560359E+01
  1.73918498386E+01  1.76891399959E+01  1.79915119135E+01  1.82990524571E+01
  1.86118499771E+01  1.89299943341E+01  1.92535769249E+01  1.95826907085E+01
  1.99174302329E+01  2.02578916623E+01  2.06041728047E+01  2.09563731400E+01
  2.13145938484E+01  2.16789378400E+01  2.20495097835E+01  2.24264161373E+01
  2.28097651792E+01  2.31996670379E+01  2.35962337248E+01  2.39995791657E+01
  2.44098192341E+01  2.48270717838E+01  2.52514566836E+01  2.56830958509E+01
  2.61221132874E+01  2.65686351143E+01  2.70227896087E+01  2.74847072403E+01
  2.79545207092E+01  2.84323649836E+01  2.89183773390E+01  2.94126973974E+01
  2.99154671672E+01  3.04268310847E+01  3.09469360546E+01  3.14759314931E+01
  3.20139693703E+01  3.25612042542E+01  3.31177933547E+01  3.36838965691E+01
  3.42596765279E+01  3.48452986415E+01  3.54409311478E+01  3.60467451605E+01
  3.66629147183E+01  3.72896168348E+01  3.79270315493E+01  3.85753419788E+01
  3.92347343703E+01  3.99053981544E+01  4.05875260000E+01  4.12813138691E+01
  4.19869610735E+01  4.27046703321E+01  4.34346478289E+01  4.41771032721E+01
  4.49322499550E+01  4.57003048166E+01  4.64814885041E+01  4.72760254365E+01
  4.80841438689E+01  4.89060759581E+01  4.97420578292E+01  5.05923296437E+01
  5.14571356683E+01  5.23367243449E+01  5.32313483623E+01  5.41412647288E+01
  5.50667348457E+01  5.60080245826E+01  5.69654043539E+01  5.79391491963E+01
  5.89295388477E+01  5.99368578281E+01  6.09613955206E+01  6.20034462551E+01
  6.30633093926E+01  6.41412894113E+01  6.52376959939E+01  6.63528441169E+01
  6.74870541408E+01  6.86406519021E+01  6.98139688072E+01  7.10073419273E+01
  7.22211140953E+01  7.34556340046E+01  7.47112563089E+01  7.59883417241E+01
  7.72872571321E+01  7.86083756862E+01  7.99520769183E+01  8.13187468476E+01
  8.27087780921E+01  8.41225699807E+01  8.55605286685E+01  8.70230672533E+01
  8.85106058941E+01  9.00235719318E+01  9.15624000125E+01  9.31275322116E+01
  9.47194181613E+01  9.63385151797E+01  9.79852884020E+01  9.96602109143E+01
  1.01363763889E+02  1.03096436725E+02  1.04858727185E+02  1.06651141540E+02
  1.08474194718E+02  1.10328410445E+02  1.12214321402E+02  1.14132469375E+02
  1.16083405411E+02  1.18067689976E+02  1.20085893116E+02  1.22138594622E+02
  1.24226384195E+02  1.26349861617E+02  1.28509636923E+02  1.30706330573E+02
  1.32940573635E+02  1.35213007964E+02  1.37524286387E+02  1.39875072889E+02
  1.42266042805E+02  1.44697883015E+02  1.47171292139E+02  1.49686980741E+02
  1.52245671528E+02  1.54848099563E+02  1.57495012474E+02  1.60187170666E+02
  1.62925347546E+02  1.65710329738E+02  1.68542917314E+02  1.71423924021E+02
  1.74354177518E+02  1.77334519608E+02  1.80365806487E+02  1.83448908984E+02
  1.86584712816E+02  1.89774118838E+02  1.93018043305E+02  1.96317418133E+02
  1.99673191170E+02  2.03086326463E+02  2.06557804540E+02
  </PP_R>
  <PP_RAB>
  7.50227656376E-07  7.63051751134E-07  7.76095055894E-07  7.89361317746E-07
  8.02854347829E-07  8.16578022431E-07  8.30536284097E-07  8.44733142766E-07
  8.59172676921E-07  8.73859034760E-07  8.88796435389E-07  9.03989170036E-07
  9.19441603278E-07  9.35158174301E-07  9.51143398171E-07  9.67401867134E-07
  9.83938251934E-07  1.00075730315E-06  1.01786385258E-06  1.03526281460E-06
  1.05295918758E-06  1.07095805537E-06  1.08926458868E-06  1.10788404664E-06
  1.12682177823E-06  1.14608322393E-06  1.16567391715E-06  1.18559948593E-06
  1.20586565451E-06  1.22647824495E-06  1.24744317886E-06  1.26876647905E-06
  1.29045427130E-06  1.31251278609E-06  1.33494836041E-06  1.35776743956E-06
  1.38097657902E-06  1.40458244633E-06  1.42859182300E-06  1.45301160645E-06
  1.47784881202E-06  1.50311057495E-06  1.52880415247E-06  1.55493692584E-06
  1.58151640249E-06  1.60855021821E-06  1.63604613927E-06  1.66401206474E-06
  1.69245602866E-06  1.72138620246E-06  1.75081089720E-06  1.78073856603E-06
  1.81117780660E-06  1.84213736350E-06  1.87362613081E-06  1.90565315466E-06
  1.93822763579E-06  1.97135893220E-06  2.00505656189E-06  2.03933020553E-06
  2.07418970928E-06  2.10964508759E-06  2.14570652612E-06  2.18238438460E-06
  2.21968919989E-06  2.25763168894E-06  2.29622275188E-06  2.33547347518E-06
  2.37539513482E-06  2.41599919952E-06  2.45729733403E-06  2.49930140252E-06
  2.54202347194E-06  2.58547581551E-06  2.62967091625E-06  2.67462147056E-06
  2.72034039186E-06  2.76684081431E-06  2.81413609659E-06  2.86223982572E-06
  2.91116582096E-06  2.96092813781E-06  3.01154107201E-06  3.06301916369E-06
  3.11537720150E-06  3.16863022690E-06  3.22279353844E-06  3.27788269621E-06
  3.33391352624E-06  3.39090212512E-06  3.44886486456E-06  3.50781839614E-06
  3.56777965606E-06  3.62876587004E-06  3.69079455823E-06  3.75388354028E-06
  3.81805094043E-06  3.88331519273E-06  3.94969504635E-06  4.01720957092E-06
  4.08587816206E-06  4.15572054693E-06  4.22675678990E-06  4.29900729831E-06
  4.37249282832E-06  4.44723449091E-06  4.52325375791E-06  4.60057246819E-06
  4.67921283391E-06  4.75919744693E-06  4.84054928528E-06  4.92329171978E-06
  5.00744852072E-06  5.09304386472E-06  5.18010234166E-06  5.26864896177E-06
  5.35870916278E-06  5.45030881723E-06  5.54347423993E-06  5.63823219552E-06
  5.73460990610E-06  5.83263505915E-06  5.93233581538E-06  6.03374081690E-06
  6.13687919539E-06  6.24178058052E-06  6.34847510844E-06  6.45699343040E-06
  6.56736672162E-06  6.67962669022E-06  6.79380558631E-06  6.90993621128E-06
  7.02805192721E-06  7.14818666647E-06  7.27037494142E-06  7.39465185441E-06
  7.52105310779E-06  7.64961501418E-06  7.78037450694E-06  7.91336915074E-06
  8.04863715237E-06  8.18621737170E-06  8.32614933287E-06  8.46847323563E-06
  8.61322996688E-06  8.76046111242E-06  8.91020896892E-06  9.06251655604E-06
  9.21742762879E-06  9.37498669014E-06  9.53523900375E-06  9.69823060701E-06
  9.86400832425E-06  1.00326197802E-05  1.02041134137E-05  1.03785384915E-05
  1.05559451226E-05  1.07363842724E-05  1.09199077777E-05  1.11065683612E-05
  1.12964196469E-05  1.14895161753E-05  1.16859134194E-05  1.18856678003E-05
  1.20888367035E-05  1.22954784956E-05  1.25056525408E-05  1.27194192179E-05
  1.29368399380E-05  1.31579771620E-05  1.33828944181E-05  1.36116563208E-05
  1.38443285890E-05  1.40809780649E-05  1.43216727333E-05  1.45664817412E-05
  1.48154754174E-05  1.50687252929E-05  1.53263041217E-05  1.55882859011E-05
  1.58547458933E-05  1.61257606473E-05  1.64014080202E-05  1.66817672003E-05
  1.69669187293E-05  1.72569445257E-05  1.75519279083E-05  1.78519536202E-05
  1.81571078529E-05  1.84674782714E-05  1.87831540389E-05  1.91042258432E-05
  1.94307859219E-05  1.97629280894E-05  2.01007477636E-05  2.04443419938E-05
  2.07938094878E-05  2.11492506408E-05  2.15107675644E-05  2.18784641151E-05
  2.22524459253E-05  2.26328204326E-05  2.30196969112E-05  2.34131865033E-05
  2.38134022508E-05  2.42204591280E-05  2.46344740744E-05  2.50555660285E-05
  2.54838559619E-05  2.59194669139E-05  2.63625240272E-05  2.68131545836E-05
  2.72714880404E-05  2.77376560680E-05  2.82117925874E-05  2.86940338089E-05
  2.91845182711E-05  2.96833868807E-05  3.01907829528E-05  3.07068522528E-05
  3.12317430371E-05  3.17656060969E-05  3.23085948006E-05  3.28608651384E-05
  3.34225757669E-05  3.39938880546E-05  3.45749661286E-05  3.51659769213E-05
  3.57670902186E-05  3.63784787089E-05  3.70003180321E-05  3.76327868307E-05
  3.82760668007E-05  3.89303427441E-05  3.95958026216E-05  4.02726376070E-05
  4.09610421418E-05  4.16612139915E-05  4.23733543017E-05  4.30976676566E-05
  4.38343621375E-05  4.45836493825E-05  4.53457446471E-05  4.61208668667E-05
  4.69092387189E-05  4.77110866876E-05  4.85266411283E-05  4.93561363340E-05
  5.01998106025E-05  5.10579063052E-05  5.19306699564E-05  5.28183522841E-05
  5.37212083024E-05  5.46394973843E-05  5.55734833365E-05  5.65234344750E-05
  5.74896237025E-05  5.84723285864E-05  5.94718314388E-05  6.04884193975E-05
  6.15223845087E-05  6.25740238104E-05  6.36436394183E-05  6.47315386122E-05
  6.58380339246E-05  6.69634432300E-05  6.81080898370E-05  6.92723025802E-05
  7.04564159154E-05  7.16607700156E-05  7.28857108682E-05  7.41315903752E-05
  7.53987664536E-05  7.66876031386E-05  7.79984706880E-05  7.93317456887E-05
  8.06878111648E-05  8.20670566877E-05  8.34698784878E-05  8.48966795689E-05
  8.63478698232E-05  8.78238661495E-05  8.93250925732E-05  9.08519803674E-05
  9.24049681775E-05  9.39845021469E-05  9.55910360451E-05  9.72250313981E-05
  9.88869576213E-05  1.00577292154E-04  1.02296520596E-04  1.04045136849E-04
  1.05823643257E-04  1.07632550750E-04  1.09472378991E-04  1.11343656529E-04
  1.13246920945E-04  1.15182719009E-04  1.17151606840E-04  1.19154150061E-04
  1.21190923963E-04  1.23262513672E-04  1.25369514317E-04  1.27512531196E-04
  1.29692179959E-04  1.31909086775E-04  1.34163888520E-04  1.36457232953E-04
  1.38789778909E-04  1.41162196482E-04  1.43575167223E-04  1.46029384331E-04
  1.48525552856E-04  1.51064389898E-04  1.53646624816E-04  1.56272999435E-04
  1.58944268264E-04  1.61661198705E-04  1.64424571281E-04  1.67235179853E-04
  1.70093831857E-04  1.73001348528E-04  1.75958565138E-04  1.78966331239E-04
  1.82025510903E-04  1.85136982975E-04  1.88301641319E-04  1.91520395081E-04
  1.94794168947E-04  1.98123903407E-04  2.01510555032E-04  2.04955096739E-04
  2.08458518080E-04  2.12021825519E-04  2.15646042726E-04  2.19332210867E-04
  2.23081388909E-04  2.26894653917E-04  2.30773101369E-04  2.34717845466E-04
  2.38730019459E-04  2.42810775967E-04  2.46961287312E-04  2.51182745856E-04
  2.55476364343E-04  2.59843376245E-04  2.64285036121E-04  2.68802619974E-04
  2.73397425617E-04  2.78070773051E-04  2.82824004837E-04  2.87658486487E-04
  2.92575606853E-04  2.97576778530E-04  3.02663438257E-04  3.07837047332E-04
  3.13099092035E-04  3.18451084048E-04  3.23894560895E-04  3.29431086382E-04
  3.35062251045E-04  3.40789672609E-04  3.46614996452E-04  3.52539896076E-04
  3.58566073590E-04  3.64695260198E-04  3.70929216698E-04  3.77269733983E-04
  3.83718633563E-04  3.90277768081E-04  3.96949021849E-04  4.03734311390E-04
  4.10635585986E-04  4.17654828240E-04  4.24794054644E-04  4.32055316160E-04
  4.39440698807E-04  4.46952324264E-04  4.54592350475E-04  4.62362972271E-04
  4.70266422002E-04  4.78304970176E-04  4.86480926112E-04  4.94796638604E-04
  5.03254496596E-04  5.11856929867E-04  5.20606409729E-04  5.29505449737E-04
  5.38556606416E-04  5.47762479986E-04  5.57125715116E-04  5.66649001684E-04
  5.76335075545E-04  5.86186719320E-04  5.96206763197E-04  6.06398085739E-04
  6.16763614718E-04  6.27306327947E-04  6.38029254147E-04  6.48935473804E-04
  6.60028120065E-04  6.71310379634E-04  6.82785493684E-04  6.94456758794E-04
  7.06327527892E-04  7.18401211221E-04  7.30681277316E-04  7.43171254003E-04
  7.55874729411E-04  7.68795353001E-04  7.81936836619E-04  7.95302955559E-04
  8.08897549649E-04  8.22724524352E-04  8.36787851890E-04  8.51091572386E-04
  8.65639795021E-04  8.80436699218E-04  8.95486535842E-04  9.10793628419E-04
  9.26362374381E-04  9.42197246327E-04  9.58302793310E-04  9.74683642141E-04
  9.91344498722E-04  1.00829014939E-03  1.02552546231E-03  1.04305538885E-03
  1.06088496503E-03  1.07901931292E-03  1.09746364218E-03  1.11622325150E-03
  1.13530353017E-03  1.15470995958E-03  1.17444811481E-03  1.19452366625E-03
  1.21494238123E-03  1.23571012565E-03  1.25683286568E-03  1.27831666946E-03
  1.30016770889E-03  1.32239226134E-03  1.34499671150E-03  1.36798755319E-03
  1.39137139123E-03  1.41515494334E-03  1.43934504209E-03  1.46394863682E-03
  1.48897279566E-03  1.51442470757E-03  1.54031168439E-03  1.56664116296E-03
  1.59342070721E-03  1.62065801040E-03  1.64836089728E-03  1.67653732634E-03
  1.70519539214E-03  1.73434332757E-03  1.76398950628E-03  1.79414244505E-03
  1.82481080621E-03  1.85600340022E-03  1.88772918808E-03  1.91999728401E-03
  1.95281695800E-03  1.98619763852E-03  2.02014891519E-03  2.05468054155E-03
  2.08980243787E-03  2.12552469398E-03  2.16185757222E-03  2.19881151030E-03
  2.23639712437E-03  2.27462521207E-03  2.31350675557E-03  2.35305292480E-03
  2.39327508059E-03  2.43418477801E-03  2.47579376961E-03  2.51811400885E-03
  2.56115765351E-03  2.60493706922E-03  2.64946483293E-03  2.69475373662E-03
  2.74081679091E-03  2.78766722883E-03  2.83531850960E-03  2.88378432251E-03
  2.93307859086E-03  2.98321547592E-03  3.03420938107E-03  3.08607495586E-03
  3.13882710026E-03  3.19248096895E-03  3.24705197564E-03  3.30255579753E-03
  3.35900837980E-03  3.41642594018E-03  3.47482497361E-03  3.53422225703E-03
  3.59463485410E-03  3.65608012021E-03  3.71857570739E-03  3.78213956941E-03
  3.84678996695E-03  3.91254547280E-03  3.97942497726E-03  4.04744769350E-03
  4.11663316315E-03  4.18700126184E-03  4.25857220498E-03  4.33136655350E-03
  4.40540521982E-03  4.48070947381E-03  4.55730094893E-03  4.63520164842E-03
  4.71443395165E-03  4.79502062052E-03  4.87698480604E-03  4.96035005491E-03
  5.04514031636E-03  5.13137994901E-03  5.21909372781E-03  5.30830685125E-03
  5.39904494853E-03  5.49133408694E-03  5.58520077938E-03  5.68067199192E-03
  5.77777515160E-03  5.87653815427E-03  5.97698937265E-03  6.07915766440E-03
  6.18307238052E-03  6.28876337369E-03  6.39626100688E-03  6.50559616208E-03
  6.61680024917E-03  6.72990521494E-03  6.84494355224E-03  6.96194830937E-03
  7.08095309953E-03  7.20199211049E-03  7.32510011442E-03  7.45031247787E-03
  7.57766517192E-03  7.70719478254E-03  7.83893852108E-03  7.97293423497E-03
  8.10922041858E-03  8.24783622430E-03  8.38882147376E-03  8.53221666930E-03
  8.67806300559E-03  8.82640238145E-03  8.97727741191E-03  9.13073144046E-03
  9.28680855146E-03  9.44555358285E-03  9.60701213901E-03  9.77123060385E-03
  9.93825615416E-03  1.01081367731E-02  1.02809212642E-02  1.04566592651E-02