<PP_INFO>
Generated using Vanderbilt code, version   7  3  6                              
Author: unknown    Generation date:   19    4   17                              
Automatically converted from original format                                    
    0        The Pseudo was generated with a Non-Relativistic Calculation
  1.00000000000E+00    Local Potential cutoff radius
nl pn  l   occ               Rcut            Rcut US             E pseu
2S  2  0  2.00      0.80000000000      1.10000000000     -1.00978244769
2P  2  1  2.00      0.80000000000      1.10000000000     -0.38870429970
3S  3  0  0.00      0.80000000000      1.10000000000     -0.01611264983
</PP_INFO>


<PP_HEADER>
   0                   Version Number
   C                   Element
   US                  Ultrasoft pseudopotential
    F                  Nonlinear Core Correction
SLA  PW   PBE  PBE     PBE  Exchange-Correlation functional
    4.00000000000      Z valence
  -10.72515811887      Total energy
    0.00000    0.00000 Suggested cutoff for wfc and rho
    1                  Max angular momentum component
  745                  Number of points in mesh
    3    4             Number of Wavefunctions, Number of Projectors
 Wavefunctions         nl  l   occ
                       2S  0  2.00
                       2P  1  2.00
                       3S  0  0.00
</PP_HEADER>


<PP_MESH>
  <PP_R>
  0.00000000000E+00  7.06180151333E-06  1.42443146680E-05  2.15496028610E-05
  2.89797647603E-05  3.65369349077E-05  4.42232843318E-05  5.20410211722E-05
  5.99923913133E-05  6.80796790299E-05  7.63052076433E-05  8.46713401887E-05
  9.31804800941E-05  1.01835071871E-04  1.10637601815E-04  1.19590598724E-04
  1.28696634621E-04  1.37958325492E-04  1.47378332043E-04  1.56959360459E-04
  1.66704163185E-04  1.76615539714E-04  1.86696337391E-04  1.96949452236E-04
  2.07377829770E-04  2.17984465864E-04  2.28772407599E-04  2.39744754143E-04
  2.50904657637E-04  2.62255324107E-04  2.73800014379E-04  2.85542045019E-04
  2.97484789285E-04  3.09631678098E-04  3.21986201022E-04  3.34551907273E-04
  3.47332406736E-04  3.60331371001E-04  3.73552534418E-04  3.86999695173E-04
  4.00676716373E-04  4.14587527163E-04  4.28736123849E-04  4.43126571050E-04
  4.57763002861E-04  4.72649624048E-04  4.87790711249E-04  5.03190614203E-04
  5.18853757007E-04  5.34784639377E-04  5.50987837948E-04  5.67468007585E-04
  5.84229882722E-04  6.01278278721E-04  6.18618093257E-04  6.36254307723E-04
  6.54191988661E-04  6.72436289222E-04  6.90992450638E-04  7.09865803737E-04
  7.29061770466E-04  7.48585865457E-04  7.68443697604E-04  7.88640971677E-04
  8.09183489964E-04  8.30077153930E-04  8.51327965923E-04  8.72942030889E-04
  8.94925558131E-04  9.17284863090E-04  9.40026369163E-04  9.63156609543E-04
  9.86682229102E-04  1.01060998630E-03  1.03494675510E-03  1.05969952701E-03
  1.08487541301E-03  1.11048164564E-03  1.13652558108E-03  1.16301470125E-03
  1.18995661596E-03  1.21735906511E-03  1.24522992088E-03  1.27357719003E-03
  1.30240901618E-03  1.33173368217E-03  1.36155961239E-03  1.39189537527E-03
  1.42274968567E-03  1.45413140745E-03  1.48604955597E-03  1.51851330069E-03
  1.55153196782E-03  1.58511504299E-03  1.61927217395E-03  1.65401317340E-03
  1.68934802175E-03  1.72528687002E-03  1.76184004274E-03  1.79901804094E-03
  1.83683154513E-03  1.87529141840E-03  1.91440870953E-03  1.95419465616E-03
  1.99466068802E-03  2.03581843021E-03  2.07767970658E-03  2.12025654304E-03
  2.16356117109E-03  2.20760603133E-03  2.25240377699E-03  2.29796727758E-03
  2.34430962263E-03  2.39144412539E-03  2.43938432670E-03  2.48814399884E-03
  2.53773714952E-03  2.58817802591E-03  2.63948111868E-03  2.69166116622E-03
  2.74473315885E-03  2.79871234313E-03  2.85361422623E-03  2.90945458039E-03
  2.96624944748E-03  3.02401514356E-03  3.08276826360E-03  3.14252568623E-03
  3.20330457859E-03  3.26512240130E-03  3.32799691342E-03  3.39194617757E-03
  3.45698856514E-03  3.52314276156E-03  3.59042777163E-03  3.65886292505E-03
  3.72846788191E-03  3.79926263836E-03  3.87126753238E-03  3.94450324956E-03
  4.01899082913E-03  4.09475166991E-03  4.17180753653E-03  4.25018056564E-03
  4.32989327232E-03  4.41096855646E-03  4.49342970944E-03  4.57730042075E-03
  4.66260478481E-03  4.74936730793E-03  4.83761291529E-03  4.92736695815E-03
  5.01865522111E-03  5.11150392953E-03  5.20593975703E-03  5.30198983321E-03
  5.39968175139E-03  5.49904357658E-03  5.60010385349E-03  5.70289161480E-03
  5.80743638944E-03  5.91376821109E-03  6.02191762684E-03  6.13191570591E-03
  6.24379404863E-03  6.35758479548E-03  6.47332063634E-03  6.59103481988E-03
  6.71076116310E-03  6.83253406107E-03  6.95638849678E-03  7.08236005122E-03
  7.21048491357E-03  7.34079989163E-03  7.47334242237E-03  7.60815058269E-03
  7.74526310038E-03  7.88471936520E-03  8.02655944024E-03  8.17082407341E-03
  8.31755470914E-03  8.46679350032E-03  8.61858332035E-03  8.77296777551E-03
  8.92999121747E-03  9.08969875603E-03  9.25213627207E-03  9.41735043075E-03
  9.58538869490E-03  9.75629933865E-03  9.93013146133E-03  1.01069350016E-02
  1.02867607515E-02  1.04696603718E-02  1.06556864057E-02  1.08448922951E-02
  1.10373323951E-02  1.12330619901E-02  1.14321373093E-02  1.16346155433E-02
  1.18405548601E-02  1.20500144221E-02  1.22630544030E-02  1.24797360050E-02
  1.27001214767E-02  1.29242741304E-02  1.31522583609E-02  1.33841396636E-02
  1.36199846535E-02  1.38598610845E-02  1.41038378682E-02  1.43519850946E-02
  1.46043740515E-02  1.48610772453E-02  1.51221684220E-02  1.53877225880E-02
  1.56578160319E-02  1.59325263462E-02  1.62119324499E-02  1.64961146111E-02
  1.67851544697E-02  1.70791350612E-02  1.73781408408E-02  1.76822577068E-02
  1.79915730262E-02  1.83061756593E-02  1.86261559854E-02  1.89516059285E-02
  1.92826189843E-02  1.96192902462E-02  1.99617164336E-02  2.03099959187E-02
  2.06642287555E-02  2.10245167083E-02  2.13909632809E-02  2.17636737461E-02
  2.21427551767E-02  2.25283164752E-02  2.29204684060E-02  2.33193236268E-02
  2.37249967210E-02  2.41376042305E-02  2.45572646896E-02  2.49840986585E-02
  2.54182287584E-02  2.58597797065E-02  2.63088783519E-02  2.67656537118E-02
  2.72302370090E-02  2.77027617093E-02  2.81833635599E-02  2.86721806284E-02
  2.91693533424E-02  2.96750245302E-02  3.01893394612E-02  3.07124458881E-02
  3.12444940894E-02  3.17856369121E-02  3.23360298162E-02  3.28958309188E-02
  3.34652010400E-02  3.40443037488E-02  3.46333054102E-02  3.52323752330E-02
  3.58416853183E-02  3.64614107092E-02  3.70917294408E-02  3.77328225914E-02
  3.83848743346E-02  3.90480719925E-02  3.97226060887E-02  4.04086704038E-02
  4.11064620310E-02  4.18161814322E-02  4.25380324961E-02  4.32722225965E-02
  4.40189626520E-02  4.47784671866E-02  4.55509543912E-02  4.63366461865E-02
  4.71357682865E-02  4.79485502636E-02  4.87752256142E-02  4.96160318262E-02
  5.04712104470E-02  5.13410071528E-02  5.22256718194E-02  5.31254585938E-02
  5.40406259673E-02  5.49714368499E-02  5.59181586455E-02  5.68810633289E-02
  5.78604275241E-02  5.88565325833E-02  5.98696646684E-02  6.09001148325E-02
  6.19481791040E-02  6.30141585716E-02  6.40983594705E-02  6.52010932706E-02
  6.63226767660E-02  6.74634321660E-02  6.86236871875E-02  6.98037751494E-02
  7.10040350680E-02  7.22248117548E-02  7.34664559153E-02  7.47293242499E-02
  7.60137795562E-02  7.73201908334E-02  7.86489333881E-02  8.00003889424E-02
  8.13749457432E-02  8.27729986742E-02  8.41949493690E-02  8.56412063263E-02
  8.71121850280E-02  8.86083080576E-02  9.01300052224E-02  9.16777136765E-02
  9.32518780467E-02  9.48529505598E-02  9.64813911731E-02  9.81376677059E-02
  9.98222559746E-02  1.01535639929E-01  1.03278311790E-01  1.05050772195E-01
  1.06853530337E-01  1.08687104114E-01  1.10552020275E-01  1.12448814575E-01
  1.14378031927E-01  1.16340226556E-01  1.18335962165E-01  1.20365812088E-01
  1.22430359463E-01  1.24530197394E-01  1.26665929124E-01  1.28838168207E-01
  1.31047538686E-01  1.33294675270E-01  1.35580223517E-01  1.37904840022E-01
  1.40269192602E-01  1.42673960489E-01  1.45119834528E-01  1.47607517369E-01
  1.50137723677E-01  1.52711180331E-01  1.55328626634E-01  1.57990814529E-01
  1.60698508811E-01  1.63452487348E-01  1.66253541304E-01  1.69102475368E-01
  1.72000107985E-01  1.74947271586E-01  1.77944812837E-01  1.80993592872E-01
  1.84094487546E-01  1.87248387687E-01  1.90456199350E-01  1.93718844076E-01
  1.97037259161E-01  2.00412397920E-01  2.03845229965E-01  2.07336741484E-01
  2.10887935519E-01  2.14499832260E-01  2.18173469335E-01  2.21909902109E-01
  2.25710203987E-01  2.29575466721E-01  2.33506800728E-01  2.37505335403E-01
  2.41572219447E-01  2.45708621199E-01  2.49915728965E-01  2.54194751368E-01
  2.58546917686E-01  2.62973478214E-01  2.67475704616E-01  2.72054890295E-01
  2.76712350763E-01  2.81449424017E-01  2.86267470928E-01  2.91167875626E-01
  2.96152045904E-01  3.01221413616E-01  3.06377435095E-01  3.11621591564E-01
  3.16955389570E-01  3.22380361409E-01  3.27898065571E-01  3.33510087184E-01
  3.39218038475E-01  3.45023559227E-01  3.50928317254E-01  3.56934008879E-01
  3.63042359420E-01  3.69255123689E-01  3.75574086492E-01  3.82001063146E-01
  3.88537899996E-01  3.95186474950E-01  4.01948698013E-01  4.08826511842E-01
  4.15821892299E-01  4.22936849023E-01  4.30173426002E-01  4.37533702165E-01
  4.45019791977E-01  4.52633846047E-01  4.60378051745E-01  4.68254633831E-01
  4.76265855095E-01  4.84414017007E-01  4.92701460374E-01  5.01130566020E-01
  5.09703755463E-01  5.18423491615E-01  5.27292279486E-01  5.36312666909E-01
  5.45487245267E-01  5.54818650237E-01  5.64309562551E-01  5.73962708767E-01
  5.83780862044E-01  5.93766842950E-01  6.03923520263E-01  6.14253811799E-01
  6.24760685253E-01  6.35447159044E-01  6.46316303191E-01  6.57371240187E-01
  6.68615145904E-01  6.80051250496E-01  6.91682839336E-01  7.03513253954E-01
  7.15545892999E-01  7.27784213216E-01  7.40231730437E-01  7.52892020593E-01
  7.65768720740E-01  7.78865530106E-01  7.92186211149E-01  8.05734590644E-01
  8.19514560779E-01  8.33530080271E-01  8.47785175509E-01  8.62283941705E-01
  8.77030544075E-01  8.92029219032E-01  9.07284275405E-01  9.22800095676E-01
  9.38581137241E-01  9.54631933687E-01  9.70957096097E-01  9.87561314376E-01
  1.00444935859E+00  1.02162608036E+00  1.03909641421E+00  1.05686537903E+00
  1.07493807951E+00  1.09331970758E+00  1.11201554394E+00  1.13103095952E+00
  1.15037141709E+00  1.17004247279E+00  1.19004977774E+00  1.21039907964E+00
  1.23109622446E+00  1.25214715808E+00  1.27355792804E+00  1.29533468523E+00
  1.31748368568E+00  1.34001129239E+00  1.36292397710E+00  1.38622832218E+00
  1.40993102251E+00  1.43403888742E+00  1.45855884264E+00  1.48349793227E+00
  1.50886332083E+00  1.53466229531E+00  1.56090226726E+00  1.58759077490E+00
  1.61473548534E+00  1.64234419671E+00  1.67042484048E+00  1.69898548366E+00
  1.72803433118E+00  1.75757972820E+00  1.78763016256E+00  1.81819426715E+00
  1.84928082245E+00  1.88089875903E+00  1.91305716011E+00  1.94576526417E+00
  1.97903246763E+00  2.01286832750E+00  2.04728256417E+00  2.08228506419E+00
  2.11788588310E+00  2.15409524833E+00  2.19092356211E+00  2.22838140453E+00
  2.26647953648E+00  2.30522890283E+00  2.34464063551E+00  2.38472605677E+00
  2.42549668235E+00  2.46696422488E+00  2.50914059718E+00  2.55203791570E+00
  2.59566850401E+00  2.64004489634E+00  2.68517984116E+00  2.73108630487E+00
  2.77777747552E+00  2.82526676656E+00  2.87356782075E+00  2.92269451406E+00
  2.97266095963E+00  3.02348151185E+00  3.07517077048E+00  3.12774358485E+00
  3.18121505812E+00  3.23560055159E+00  3.29091568917E+00  3.34717636184E+00
  3.40439873218E+00  3.46259923908E+00  3.52179460242E+00  3.58200182789E+00
  3.64323821185E+00  3.70552134633E+00  3.76886912407E+00  3.83329974366E+00
  3.89883171478E+00  3.96548386348E+00  4.03327533764E+00  4.10222561245E+00
  4.17235449597E+00  4.24368213489E+00  4.31622902025E+00  4.39001599336E+00
  4.46506425180E+00  4.54139535549E+00  4.61903123286E+00  4.69799418720E+00
  4.77830690305E+00  4.85999245269E+00  4.94307430280E+00  5.02757632118E+00
  5.11352278364E+00  5.20093838093E+00  5.28984822585E+00  5.38027786049E+00
  5.47225326353E+00  5.56580085772E+00  5.66094751747E+00  5.75772057659E+00
  5.85614783610E+00  5.95625757224E+00  6.05807854460E+00  6.16164000439E+00
  6.26697170280E+00  6.37410389959E+00  6.48306737176E+00  6.59389342243E+00
  6.70661388976E+00  6.82126115617E+00  6.93786815759E+00  7.05646839296E+00
  7.17709593384E+00  7.29978543417E+00  7.42457214029E+00  7.55149190100E+00
  7.68058117788E+00  7.81187705580E+00  7.94541725351E+00  8.08124013453E+00
  8.21938471814E+00  8.35989069061E+00  8.50279841659E+00  8.64814895071E+00
  8.79598404935E+00  8.94634618268E+00  9.09927854683E+00  9.25482507631E+00
  9.41303045663E+00  9.57394013714E+00  9.73760034406E+00  9.90405809382E+00
  1.00733612065E+01  1.02455583196E+01  1.04206989020E+01  1.05988332683E+01
  1.07800125929E+01  1.09642889253E+01  1.11517152044E+01  1.13423452741E+01
  1.15362338988E+01  1.17334367790E+01  1.19340105672E+01  1.21380128844E+01
  1.23455023365E+01  1.25565385312E+01  1.27711820951E+01  1.29894946912E+01
  1.32115390364E+01  1.34373789198E+01  1.36670792209E+01  1.39007059280E+01
  1.41383261576E+01  1.43800081734E+01  1.46258214060E+01  1.48758364728E+01
  1.51301251982E+01  1.53887606344E+01  1.56518170825E+01  1.59193701134E+01
  1.61914965900E+01  1.64682746890E+01  1.67497839232E+01  1.70361051650E+01
  1.73273206688E+01  1.76235140951E+01  1.79247705348E+01  1.82311765328E+01
  1.85428201138E+01  1.88597908068E+01  1.91821796715E+01  1.95100793239E+01
  1.98435839632E+01  2.01827893988E+01  2.05277930780E+01  2.08786941137E+01
  2.12355933127E+01  2.15985932055E+01  2.19677980749E+01  2.23433139862E+01
  2.27252488180E+01  2.31137122927E+01  2.35088160083E+01  2.39106734706E+01
  2.43194001253E+01  2.47351133917E+01  2.51579326963E+01  2.55879795068E+01
  2.60253773673E+01  2.64702519339E+01  2.69227310102E+01  2.73829445849E+01
  2.78510248684E+01  2.83271063311E+01  2.88113257419E+01  2.93038222078E+01
  2.98047372134E+01  3.03142146620E+01  3.08324009165E+01  3.13594448418E+01
  3.18954978476E+01  3.24407139313E+01  3.29952497230E+01  3.35592645302E+01
  3.41329203834E+01  3.47163820828E+01  3.53098172456E+01  3.59133963544E+01
  3.65272928057E+01  3.71516829600E+01  3.77867461926E+01  3.84326649449E+01
  3.90896247768E+01  3.97578144201E+01  4.04374258329E+01  4.11286542543E+01
  4.18316982608E+01  4.25467598235E+01  4.32740443657E+01  4.40137608221E+01
  4.47661216989E+01  4.55313431350E+01  4.63096449635E+01  4.71012507756E+01
  4.79063879842E+01  4.87252878898E+01  4.95581857464E+01  5.04053208295E+01
  5.12669365045E+01  5.21432802970E+01  5.30346039636E+01  5.39411635644E+01
  5.48632195363E+01  5.58010367682E+01  5.67548846769E+01  5.77250372844E+01
  5.87117732967E+01  5.97153761841E+01  6.07361342621E+01  6.17743407750E+01
  6.28302939792E+01  6.39042972298E+01  6.49966590670E+01  6.61076933054E+01
  6.72377191234E+01  6.83870611558E+01  6.95560495861E+01  7.07450202422E+01
  7.19543146924E+01  7.31842803434E+01  7.44352705407E+01  7.57076446695E+01
  7.70017682583E+01  7.83180130838E+01  7.96567572776E+01  8.10183854350E+01
  8.24032887255E+01  8.38118650049E+01  8.52445189300E+01  8.67016620745E+01
  8.81837130474E+01  8.96910976134E+01  9.12242488148E+01  9.27836070963E+01
  9.43696204313E+01  9.59827444509E+01  9.76234425742E+01  9.92921861422E+01
  1.00989454553E+02  1.02715735398E+02  1.04471524605E+02  1.06257326578E+02
  1.08073654343E+02  1.09921029697E+02  1.11799983354E+02  1.13711055102E+02
  1.15654793954E+02  1.17631758309E+02  1.19642516111E+02  1.21687645011E+02
  1.23767732535E+02
  </PP_R>
  <PP_RAB>
  7.00212479284E-06  7.12181634392E-06  7.24355385501E-06  7.36737229896E-06
  7.49330724641E-06  7.62139487602E-06  7.75167198491E-06  7.88417599915E-06
  8.01894498459E-06  8.15601765776E-06  8.29543339697E-06  8.43723225367E-06
  8.58145496393E-06  8.72814296014E-06  8.87733838293E-06  9.02908409325E-06
  9.18342368472E-06  9.34040149610E-06  9.50006262408E-06  9.66245293622E-06
  9.82761908412E-06  9.99560851680E-06  1.01664694944E-05  1.03402511019E-05
  1.05170032635E-05  1.06967767566E-05  1.08796232267E-05  1.10655952020E-05
  1.12547461087E-05  1.14471302862E-05  1.16428030027E-05  1.18418204711E-05
  1.20442398655E-05  1.22501193369E-05  1.24595180305E-05  1.26724961026E-05
  1.28891147375E-05  1.31094361657E-05  1.33335236813E-05  1.35614416602E-05
  1.37932555788E-05  1.40290320329E-05  1.42688387564E-05  1.45127446411E-05
  1.47608197566E-05  1.50131353699E-05  1.52697639665E-05  1.55307792709E-05
  1.57962562675E-05  1.60662712230E-05  1.63409017072E-05  1.66202266163E-05
  1.69043261949E-05  1.71932820593E-05  1.74871772209E-05  1.77860961102E-05
  1.80901246007E-05  1.83993500339E-05  1.87138612443E-05  1.90337485850E-05
  1.93591039533E-05  1.96900208175E-05  2.00265942438E-05  2.03689209230E-05
  2.07170991990E-05  2.10712290967E-05  2.14314123509E-05  2.17977524350E-05
  2.21703545917E-05  2.25493258622E-05  2.29347751176E-05  2.33268130902E-05
  2.37255524047E-05  2.41311076114E-05  2.45435952183E-05  2.49631337252E-05
  2.53898436573E-05  2.58238476003E-05  2.62652702349E-05  2.67142383734E-05
  2.71708809956E-05  2.76353292862E-05  2.81077166721E-05  2.85881788611E-05
  2.90768538807E-05  2.95738821177E-05  3.00794063588E-05  3.05935718313E-05
  3.11165262449E-05  3.16484198344E-05  3.21894054025E-05  3.27396383639E-05
  3.32992767899E-05  3.38684814537E-05  3.44474158768E-05  3.50362463759E-05
  3.56351421107E-05  3.62442751322E-05  3.68638204326E-05  3.74939559952E-05
  3.81348628459E-05  3.87867251047E-05  3.94497300391E-05  4.01240681175E-05
  4.08099330643E-05  4.15075219151E-05  4.22170350738E-05  4.29386763697E-05
  4.36726531165E-05  4.44191761713E-05  4.51784599960E-05  4.59507227180E-05
  4.67361861934E-05  4.75350760707E-05  4.83476218555E-05  4.91740569765E-05
  5.00146188526E-05  5.08695489608E-05  5.17390929060E-05  5.26235004915E-05
  5.35230257903E-05  5.44379272187E-05  5.53684676102E-05  5.63149142910E-05
  5.72775391570E-05  5.82566187516E-05  5.92524343454E-05  6.02652720170E-05
  6.12954227351E-05  6.23431824421E-05  6.34088521389E-05  6.44927379720E-05
  6.55951513207E-05  6.67164088870E-05  6.78568327866E-05  6.90167506412E-05
  7.01964956727E-05  7.13964067990E-05  7.26168287315E-05  7.38581120736E-05
  7.51206134221E-05  7.64046954692E-05  7.77107271068E-05  7.90390835326E-05
  8.03901463576E-05  8.17643037160E-05  8.31619503766E-05  8.45834878563E-05
  8.60293245354E-05  8.74998757746E-05  8.89955640350E-05  9.05168189987E-05
  9.20640776930E-05  9.36377846153E-05  9.52383918612E-05  9.68663592540E-05
  9.85221544775E-05  1.00206253209E-04  1.01919139259E-04  1.03661304705E-04
  1.05433250038E-04  1.07235484303E-04  1.09068525248E-04  1.10932899469E-04
  1.12829142566E-04  1.14757799293E-04  1.16719423714E-04  1.18714579367E-04
  1.20743839422E-04  1.22807786845E-04  1.24907014569E-04  1.27042125661E-04
  1.29213733497E-04  1.31422461939E-04  1.33668945511E-04  1.35953829584E-04
  1.38277770562E-04  1.40641436067E-04  1.43045505136E-04  1.45490668410E-04
  1.47977628338E-04  1.50507099375E-04  1.53079808189E-04  1.55696493869E-04
  1.58357908140E-04  1.61064815573E-04  1.63817993811E-04  1.66618233789E-04
  1.69466339961E-04  1.72363130533E-04  1.75309437697E-04  1.78306107870E-04
  1.81354001938E-04  1.84453995501E-04  1.87606979127E-04  1.90813858609E-04
  1.94075555219E-04  1.97393005981E-04  2.00767163934E-04  2.04198998408E-04
  2.07689495303E-04  2.11239657371E-04  2.14850504505E-04  2.18523074031E-04
  2.22258421008E-04  2.26057618528E-04  2.29921758028E-04  2.33851949599E-04
  2.37849322311E-04  2.41915024530E-04  2.46050224254E-04  2.50256109447E-04
  2.54533888377E-04  2.58884789968E-04  2.63310064149E-04  2.67810982217E-04
  2.72388837197E-04  2.77044944219E-04  2.81780640893E-04  2.86597287692E-04
  2.91496268346E-04  2.96478990238E-04  3.01546884806E-04  3.06701407958E-04
  3.11944040491E-04  3.17276288510E-04  3.22699683867E-04  3.28215784598E-04
  3.33826175374E-04  3.39532467949E-04  3.45336301633E-04  3.51239343753E-04
  3.57243290140E-04  3.63349865612E-04  3.69560824468E-04  3.75877950998E-04
  3.82303059990E-04  3.88837997254E-04  3.95484640149E-04  4.02244898129E-04
  4.09120713284E-04  4.16114060903E-04  4.23226950040E-04  4.30461424089E-04
  4.37819561376E-04  4.45303475751E-04  4.52915317198E-04  4.60657272450E-04
  4.68531565623E-04  4.76540458849E-04  4.84686252926E-04  4.92971287985E-04
  5.01397944156E-04  5.09968642254E-04  5.18685844474E-04  5.27552055100E-04
  5.36569821223E-04  5.45741733473E-04  5.55070426762E-04  5.64558581044E-04
  5.74208922081E-04  5.84024222230E-04  5.94007301237E-04  6.04161027047E-04
  6.14488316629E-04  6.24992136814E-04  6.35675505145E-04  6.46541490748E-04
  6.57593215210E-04  6.68833853478E-04  6.80266634770E-04  6.91894843502E-04
  7.03721820234E-04  7.15750962627E-04  7.27985726422E-04  7.40429626428E-04
  7.53086237538E-04  7.65959195751E-04  7.79052199220E-04  7.92369009310E-04
  8.05913451683E-04  8.19689417396E-04  8.33700864016E-04  8.47951816762E-04
  8.62446369657E-04  8.77188686704E-04  8.92183003087E-04  9.07433626382E-04
  9.22944937799E-04  9.38721393436E-04  9.54767525564E-04  9.71087943927E-04
  9.87687337065E-04  1.00457047366E-03  1.02174220392E-03  1.03920746094E-03
  1.05697126215E-03  1.07503871075E-03  1.09341499717E-03  1.11210540057E-03
  1.13111529032E-03  1.15045012761E-03  1.17011546695E-03  1.19011695783E-03
  1.21046034628E-03  1.23115147657E-03  1.25219629285E-03  1.27360084089E-03
  1.29537126981E-03  1.31751383383E-03  1.34003489408E-03  1.36294092043E-03
  1.38623849332E-03  1.40993430571E-03  1.43403516494E-03  1.45854799473E-03
  1.48347983713E-03  1.50883785458E-03  1.53462933195E-03  1.56086167863E-03
  1.58754243067E-03  1.61467925293E-03  1.64227994129E-03  1.67035242489E-03
  1.69890476843E-03  1.72794517443E-03  1.75748198565E-03  1.78752368742E-03
  1.81807891017E-03  1.84915643180E-03  1.88076518030E-03  1.91291423623E-03
  1.94561283541E-03  1.97887037151E-03  2.01269639877E-03  2.04710063476E-03
  2.08209296315E-03  2.11768343656E-03  2.15388227944E-03  2.19069989102E-03
  2.22814684829E-03  2.26623390903E-03  2.30497201491E-03  2.34437229466E-03
  2.38444606720E-03  2.42520484495E-03  2.46666033713E-03  2.50882445309E-03
  2.55170930576E-03  2.59532721514E-03  2.63969071181E-03  2.68481254054E-03
  2.73070566396E-03  2.77738326628E-03  2.82485875706E-03  2.87314577510E-03
  2.92225819233E-03  2.97221011778E-03  3.02301590169E-03  3.07469013957E-03
  3.12724767642E-03  3.18070361102E-03  3.23507330022E-03  3.29037236337E-03
  3.34661668684E-03  3.40382242852E-03  3.46200602251E-03  3.52118418384E-03
  3.58137391325E-03  3.64259250209E-03  3.70485753726E-03  3.76818690631E-03
  3.83259880254E-03  3.89811173024E-03  3.96474451001E-03  4.03251628416E-03
  4.10144652220E-03  4.17155502646E-03  4.24286193776E-03  4.31538774119E-03
  4.38915327202E-03  4.46417972164E-03  4.54048864371E-03  4.61810196031E-03
  4.69704196823E-03  4.77733134542E-03  4.85899315747E-03  4.94205086422E-03
  5.02652832655E-03  5.11244981320E-03  5.19984000775E-03  5.28872401572E-03
  5.37912737175E-03  5.47107604699E-03  5.56459645650E-03  5.65971546690E-03
  5.75646040403E-03  5.85485906084E-03  5.95493970537E-03  6.05673108884E-03
  6.16026245394E-03  6.26556354325E-03  6.37266460771E-03  6.48159641541E-03
  6.59239026032E-03  6.70507797139E-03  6.81969192162E-03  6.93626503736E-03
  7.05483080783E-03  7.17542329467E-03  7.29807714178E-03  7.42282758522E-03
  7.54971046339E-03  7.67876222729E-03  7.81001995098E-03  7.94352134227E-03
  8.07930475353E-03  8.21740919270E-03  8.35787433452E-03  8.50074053191E-03
  8.64604882755E-03  8.79384096572E-03  8.94415940422E-03  9.09704732665E-03
  9.25254865473E-03  9.41070806101E-03  9.57157098160E-03  9.73518362931E-03
  9.90159300690E-03  1.00708469206E-02  1.02429939937E-02  1.04180836807E-02
  1.05961662816E-02  1.07772929560E-02  1.09615157382E-02  1.11488875517E-02
  1.13394622249E-02  1.15332945061E-02  1.17304400796E-02  1.19309555816E-02
  1.21348986163E-02  1.23423277725E-02  1.25533026407E-02  1.27678838298E-02
  1.29861329848E-02  1.32081128045E-02  1.34338870595E-02  1.36635206103E-02
  1.38970794261E-02  1.41346306040E-02  1.43762423877E-02  1.46219841876E-02
  1.48719266006E-02  1.51261414304E-02  1.53847017079E-02  1.56476817125E-02
  1.59151569933E-02  1.61872043907E-02  1.64639020586E-02  1.67453294871E-02
  1.70315675247E-02  1.73226984020E-02  1.76188057554E-02  1.79199746507E-02
  1.82262916080E-02  1.85378446262E-02  1.88547232084E-02  1.91770183878E-02
  1.95048227534E-02  1.98382304772E-02  2.01773373407E-02  2.05222407628E-02
  2.08730398275E-02  2.12298353126E-02  2.15927297187E-02  2.19618272981E-02
  2.23372340855E-02  2.27190579281E-02  2.31074085163E-02  2.35023974159E-02
  2.39041380995E-02  2.43127459793E-02  2.47283384407E-02  2.51510348751E-02
  2.55809567152E-02  2.60182274691E-02  2.64629727563E-02  2.69153203435E-02
  2.73754001813E-02  2.78433444420E-02  2.83192875566E-02  2.88033662546E-02
  2.92957196024E-02  2.97964890435E-02  3.03058184393E-02  3.08238541103E-02
  3.13507448782E-02  3.18866421083E-02  3.24316997537E-02  3.29860743989E-02
  3.35499253049E-02  3.41234144553E-02  3.47067066023E-02  3.52999693145E-02
  3.59033730248E-02  3.65170910795E-02  3.71412997877E-02  3.77761784727E-02
  3.84219095227E-02  3.90786784439E-02  3.97466739132E-02  4.04260878327E-02
  4.11171153850E-02  4.18199550889E-02  4.25348088567E-02  4.32618820519E-02
  4.40013835487E-02  4.47535257915E-02  4.55185248563E-02  4.62966005125E-02
  4.70879762861E-02  4.78928795241E-02  4.87115414596E-02  4.95441972783E-02
  5.03910861863E-02  5.12524514781E-02  5.21285406075E-02  5.30196052579E-02
  5.39259014149E-02  5.48476894399E-02  5.57852341447E-02  5.67388048678E-02
  5.77086755515E-02  5.86951248211E-02  5.96984360642E-02  6.07188975127E-02
  6.17568023256E-02  6.28124486727E-02  6.38861398209E-02  6.49781842208E-02
  6.60888955956E-02  6.72185930312E-02  6.83676010679E-02  6.95362497934E-02
  7.07248749379E-02  7.19338179704E-02  7.31634261968E-02  7.44140528597E-02
  7.56860572401E-02  7.69798047601E-02  7.82956670885E-02  7.96340222468E-02
  8.09952547188E-02  8.23797555602E-02  8.37879225112E-02  8.52201601109E-02
  8.66768798136E-02  8.81585001066E-02  8.96654466307E-02  9.11981523026E-02
  9.27570574388E-02  9.43426098827E-02  9.59552651328E-02  9.75954864738E-02
  9.92637451095E-02  1.00960520298E-01  1.02686299491E-01  1.04441578470E-01
  1.06226861494E-01  1.08042661440E-01  1.09889499951E-01  1.11767907590E-01
  1.13678423985E-01  1.15621597992E-01  1.17597987847E-01  1.19608161328E-01
  1.21652695919E-01  1.23732178975E-01  1.25847207892E-01  1.27998390277E-01
  1.30186344123E-01  1.32411697986E-01  1.34675091167E-01  1.36977173896E-01
  1.39318607517E-01  1.41700064678E-01  1.44122229525E-01  1.46585797899E-01
  1.49091477537E-01  1.51639988272E-01  1.54232062241E-01  1.56868444096E-01
  1.59549891220E-01  1.62277173941E-01  1.65051075753E-01  1.67872393545E-01
  1.70741937828E-01  1.73660532966E-01  1.76629017414E-01  1.79648243960E-01
  1.82719079971E-01  1.85842407638E-01  1.89019124233E-01  1.92250142364E-01
  1.95536390241E-01  1.98878811938E-01  2.02278367671E-01  2.05736034064E-01
  2.09252804438E-01  2.12829689094E-01  2.16467715601E-01  2.20167929094E-01
  2.23931392572E-01  2.27759187206E-01  2.31652412648E-01  2.35612187345E-01
  2.39639648864E-01  2.43735954217E-01  2.47902280193E-01  2.52139823697E-01
  2.56449802094E-01  2.60833453556E-01  2.65292037421E-01  2.69826834556E-01
  2.74439147719E-01  2.79130301938E-01  2.83901644892E-01  2.88754547294E-01
  2.93690403290E-01  2.98710630856E-01  3.03816672206E-01  3.09009994207E-01
  3.14292088799E-01  3.19664473427E-01  3.25128691472E-01  3.30686312699E-01
  3.36338933704E-01  3.42088178376E-01  3.47935698363E-01  3.53883173543E-01
  3.59932312510E-01  3.66084853066E-01  3.72342562716E-01  3.78707239180E-01
  3.85180710904E-01  3.91764837594E-01  3.98461510740E-01  4.05272654168E-01
  4.12200224587E-01  4.19246212154E-01  4.26412641045E-01  4.33701570037E-01
  4.41115093097E-01  4.48655339987E-01  4.56324476875E-01  4.64124706954E-01
  4.72058271081E-01  4.80127448414E-01  4.88334557072E-01  4.96681954799E-01
  5.05172039640E-01  5.13807250633E-01  5.22590068506E-01  5.31523016393E-01
  5.40608660558E-01  5.49849611129E-01  5.59248522854E-01  5.68808095857E-01
  5.78531076420E-01  5.88420257765E-01  5.98478480865E-01  6.08708635250E-01
  6.19113659848E-01  6.29696543820E-01  6.40460327423E-01  6.51408102885E-01
  6.62543015290E-01  6.73868263483E-01  6.85387100987E-01  6.97102836943E-01
  7.09018837054E-01  7.21138524557E-01  7.33465381204E-01  7.46002948261E-01
  7.58754827530E-01  7.71724682378E-01  7.84916238794E-01  7.98333286456E-01
  8.11979679824E-01  8.25859339240E-01  8.39976252064E-01  8.54334473811E-01
  8.68938129320E-01  8.83791413939E-01  8.98898594729E-01  9.14264011691E-01
  9.29892079011E-01  9.45787286332E-01  9.61954200038E-01  9.78397464572E-01
  9.95121803764E-01  1.01213202219E+00  1.02943300657E+00  1.04702972712E+00
  1.06492723906E+00  1.08313068399E+00  1.10164529140E+00  1.12047638018E+00
  1.13962936015E+00  1.15910973358E+00  1.17892309680E+00  1.19907514182E+00
  1.21957165793E+00  1.24041853337E+00  1.26162175705E+00  1.28318742025E+00
  1.30512171837E+00  1.32743095270E+00  1.35012153225E+00  1.37319997560E+00
  1.39667291273E+00  1.42054708695E+00  1.44482935687E+00  1.46952669830E+00
  1.49464620632E+00  1.52019509727E+00  1.54618071085E+00  1.57261051223E+00
  1.59949209418E+00  1.62683317926E+00  1.65464162203E+00  1.68292541132E+00
  1.71169267251E+00  1.74095166988E+00  1.77071080898E+00  1.80097863904E+00
  1.83176385540E+00  1.86307530207E+00  1.89492197423E+00  1.92731302080E+00