<PP_INFO>
Generated using Vanderbilt code, version   7  3  6                              
Author: unknown    Generation date:    3   22   16                              
Automatically converted from original format                                    
    1        The Pseudo was generated with a Scalar-Relativistic Calculation
  1.80000000000E+00    Local Potential cutoff radius
nl pn  l   occ               Rcut            Rcut US             E pseu
5S  5  0  2.00      0.80000000000      2.50000000000     -1.96476767685
5P  5  1  6.00      0.80000000000      1.80000000000     -0.99358247620
6S  6  0  1.00      0.80000000000      2.50000000000     -0.15333981051
</PP_INFO>


<PP_HEADER>
   0                   Version Number
  Cs                   Element
   US                  Ultrasoft pseudopotential
    F                  Nonlinear Core Correction
SLA  PW   PBE  PBE     PBE  Exchange-Correlation functional
    9.00000000000      Z valence
  -40.46727921698      Total energy
    0.00000    0.00000 Suggested cutoff for wfc and rho
    2                  Max angular momentum component
  879                  Number of points in mesh
    3    6             Number of Wavefunctions, Number of Projectors
 Wavefunctions         nl  l   occ
                       5S  0  2.00
                       5P  1  6.00
                       6S  0  1.00
</PP_HEADER>


<PP_MESH>
  <PP_R>
  0.00000000000E+00  1.04037293387E-09  2.10708303394E-09  3.20079702877E-09
  4.32219852519E-09  5.47198843565E-09  6.65088541628E-09  7.85962631605E-09
  9.09896663738E-09  1.03696810083E-08  1.16725636667E-08  1.30084289566E-08
  1.43781118374E-08  1.57824684053E-08  1.72223764290E-08  1.86987358979E-08
  2.02124695847E-08  2.17645236222E-08  2.33558680947E-08  2.49874976443E-08
  2.66604320927E-08  2.83757170782E-08  3.01344247099E-08  3.19376542372E-08
  3.37865327374E-08  3.56822158196E-08  3.76258883475E-08  3.96187651797E-08
  4.16620919291E-08  4.37571457415E-08  4.59052360936E-08  4.81077056119E-08
  5.03659309115E-08  5.26813234567E-08  5.50553304432E-08  5.74894357028E-08
  5.99851606303E-08  6.25440651352E-08  6.51677486161E-08  6.78578509605E-08
  7.06160535699E-08  7.34440804109E-08  7.63436990922E-08  7.93167219698E-08
  8.23650072800E-08  8.54904603001E-08  8.86950345402E-08  9.19807329633E-08
  9.53496092381E-08  9.88037690218E-08  1.02345371277E-07  1.05976629620E-07
  1.09699813705E-07  1.13517250644E-07  1.17431326460E-07  1.21444487576E-07
  1.25559242350E-07  1.29778162637E-07  1.34103885400E-07  1.38539114355E-07
  1.43086621666E-07  1.47749249673E-07  1.52529912670E-07  1.57431598727E-07
  1.62457371557E-07  1.67610372431E-07  1.72893822145E-07  1.78311023024E-07
  1.83865360996E-07  1.89560307704E-07  1.95399422674E-07  2.01386355544E-07
  2.07524848340E-07  2.13818737821E-07  2.20271957874E-07  2.26888541969E-07
  2.33672625689E-07  2.40628449305E-07  2.47760360435E-07  2.55072816754E-07
  2.62570388787E-07  2.70257762759E-07  2.78139743530E-07  2.86221257593E-07
  2.94507356160E-07  3.03003218310E-07  3.11714154235E-07  3.20645608553E-07
  3.29803163713E-07  3.39192543485E-07  3.48819616538E-07  3.58690400106E-07
  3.68811063750E-07  3.79187933213E-07  3.89827494378E-07  4.00736397315E-07
  4.11921460446E-07  4.23389674798E-07  4.35148208378E-07  4.47204410653E-07
  4.59565817141E-07  4.72240154125E-07  4.85235343477E-07  4.98559507614E-07
  5.12220974571E-07  5.26228283212E-07  5.40590188558E-07  5.55315667270E-07
  5.70413923250E-07  5.85894393400E-07  6.01766753517E-07  6.18040924344E-07
  6.34727077766E-07  6.51835643174E-07  6.69377313977E-07  6.87363054290E-07
  7.05804105788E-07  7.24711994726E-07  7.44098539152E-07  7.63975856287E-07
  7.84356370100E-07  8.05252819077E-07  8.26678264179E-07  8.48646097005E-07
  8.71170048167E-07  8.94264195868E-07  9.17942974701E-07  9.42221184674E-07
  9.67114000458E-07  9.92636980874E-07  1.01880607862E-06  1.04563765022E-06
  1.07314846630E-06  1.10135572199E-06  1.13027704777E-06  1.15993052039E-06
  1.19033467425E-06  1.22150851293E-06  1.25347152109E-06  1.28624367665E-06
  1.31984546329E-06  1.35429788320E-06  1.38962247027E-06  1.42584130352E-06
  1.46297702090E-06  1.50105283345E-06  1.54009253977E-06  1.58012054097E-06
  1.62116185584E-06  1.66324213654E-06  1.70638768463E-06  1.75062546746E-06
  1.79598313509E-06  1.84248903755E-06  1.89017224254E-06  1.93906255360E-06
  1.98919052878E-06  2.04058749970E-06  2.09328559113E-06  2.14731774110E-06
  2.20271772145E-06  2.25952015898E-06  2.31776055707E-06  2.37747531785E-06
  2.43870176500E-06  2.50147816704E-06  2.56584376126E-06  2.63183877826E-06
  2.69950446706E-06  2.76888312094E-06  2.84001810380E-06  2.91295387732E-06
  2.98773602874E-06  3.06441129934E-06  3.14302761365E-06  3.22363410943E-06
  3.30628116837E-06  3.39102044757E-06  3.47790491184E-06  3.56698886679E-06
  3.65832799279E-06  3.75197937978E-06  3.84800156292E-06  3.94645455920E-06
  4.04739990494E-06  4.15090069428E-06  4.25702161858E-06  4.36582900686E-06
  4.47739086729E-06  4.59177692966E-06  4.70905868899E-06  4.82930945020E-06
  4.95260437391E-06  5.07902052348E-06  5.20863691311E-06  5.34153455727E-06
  5.47779652131E-06  5.61750797339E-06  5.76075623771E-06  5.90763084912E-06
  6.05822360901E-06  6.21262864277E-06  6.37094245857E-06  6.53326400770E-06
  6.69969474640E-06  6.87033869932E-06  7.04530252447E-06  7.22469557994E-06
  7.40862999223E-06  7.59722072634E-06  7.79058565761E-06  7.98884564543E-06
  8.19212460872E-06  8.40054960348E-06  8.61425090210E-06  8.83336207484E-06
  9.05802007334E-06  9.28836531614E-06  9.52454177653E-06  9.76669707248E-06
  1.00149825589E-05  1.02695534224E-05  1.05305687779E-05  1.07981917687E-05
  1.10725896677E-05  1.13539339826E-05  1.16424005627E-05  1.19381697091E-05
  1.22414262870E-05  1.25523598418E-05  1.28711647170E-05  1.31980401760E-05
  1.35331905267E-05  1.38768252489E-05  1.42291591255E-05  1.45904123767E-05
  1.49608107974E-05  1.53405858988E-05  1.57299750527E-05  1.61292216400E-05
  1.65385752027E-05  1.69582916002E-05  1.73886331689E-05  1.78298688862E-05
  1.82822745389E-05  1.87461328953E-05  1.92217338818E-05  1.97093747647E-05
  2.02093603352E-05  2.07220031008E-05  2.12476234797E-05  2.17865500019E-05
  2.23391195139E-05  2.29056773898E-05  2.34865777465E-05  2.40821836658E-05
  2.46928674207E-05  2.53190107085E-05  2.59610048891E-05  2.66192512297E-05
  2.72941611558E-05  2.79861565080E-05  2.86956698060E-05  2.94231445186E-05
  3.01690353412E-05  3.09338084799E-05  3.17179419428E-05  3.25219258388E-05
  3.33462626840E-05  3.41914677159E-05  3.50580692149E-05  3.59466088354E-05
  3.68576419434E-05  3.77917379644E-05  3.87494807387E-05  3.97314688868E-05
  4.07383161833E-05  4.17706519403E-05  4.28291214015E-05  4.39143861447E-05
  4.50271244956E-05  4.61680319520E-05  4.73378216182E-05  4.85372246508E-05
  4.97669907157E-05  5.10278884567E-05  5.23207059760E-05  5.36462513267E-05
  5.50053530176E-05  5.63988605317E-05  5.78276448564E-05  5.92925990285E-05
  6.07946386921E-05  6.23347026707E-05  6.39137535546E-05  6.55327783020E-05
  6.71927888559E-05  6.88948227771E-05  7.06399438922E-05  7.24292429586E-05
  7.42638383465E-05  7.61448767378E-05  7.80735338426E-05  8.00510151346E-05
  8.20785566037E-05  8.41574255296E-05  8.62889212728E-05  8.84743760877E-05
  9.07151559546E-05  9.30126614339E-05  9.53683285414E-05  9.77836296455E-05
  1.00260074388E-04  1.02799210628E-04  1.05402625408E-04  1.08071945947E-04
  1.10808840657E-04  1.13615020186E-04  1.16492238488E-04  1.19442293919E-04
  1.22467030358E-04  1.25568338365E-04  1.28748156357E-04  1.32008471826E-04
  1.35351322573E-04  1.38778797990E-04  1.42293040360E-04  1.45896246200E-04
  1.49590667629E-04  1.53378613783E-04  1.57262452249E-04  1.61244610555E-04
  1.65327577678E-04  1.69513905606E-04  1.73806210930E-04  1.78207176480E-04
  1.82719553004E-04  1.87346160884E-04  1.92089891899E-04  1.96953711037E-04
  2.01940658342E-04  2.07053850820E-04  2.12296484382E-04  2.17671835844E-04
  2.23183264976E-04  2.28834216600E-04  2.34628222747E-04  2.40568904857E-04
  2.46659976051E-04  2.52905243446E-04  2.59308610538E-04  2.65874079640E-04
  2.72605754383E-04  2.79507842284E-04  2.86584657372E-04  2.93840622887E-04
  3.01280274043E-04  3.08908260865E-04  3.16729351092E-04  3.24748433162E-04
  3.32970519260E-04  3.41400748460E-04  3.50044389927E-04  3.58906846220E-04
  3.67993656662E-04  3.77310500805E-04  3.86863201981E-04  3.96657730939E-04
  4.06700209577E-04  4.16996914773E-04  4.27554282302E-04  4.38378910862E-04
  4.49477566199E-04  4.60857185333E-04  4.72524880897E-04  4.84487945581E-04
  4.96753856689E-04  5.09330280815E-04  5.22225078633E-04  5.35446309813E-04
  5.49002238053E-04  5.62901336250E-04  5.77152291794E-04  5.91764011994E-04
  6.06745629653E-04  6.22106508768E-04  6.37856250390E-04  6.54004698619E-04
  6.70561946761E-04  6.87538343635E-04  7.04944500042E-04  7.22791295397E-04
  7.41089884527E-04  7.59851704646E-04  7.79088482502E-04  7.98812241709E-04
  8.19035310257E-04  8.39770328223E-04  8.61030255668E-04  8.82828380738E-04
  9.05178327972E-04  9.28094066814E-04  9.51589920346E-04  9.75680574242E-04
  1.00038108595E-03  1.02570689408E-03  1.05167382810E-03  1.07829811818E-03
  1.10559640538E-03  1.13358575200E-03  1.16228365231E-03  1.19170804343E-03
  1.22187731655E-03  1.25281032846E-03  1.28452641329E-03  1.31704539463E-03
  1.35038759791E-03  1.38457386308E-03  1.41962555767E-03  1.45556459013E-03
  1.49241342354E-03  1.53019508960E-03  1.56893320309E-03  1.60865197659E-03
  1.64937623564E-03  1.69113143420E-03  1.73394367066E-03  1.77783970404E-03
  1.82284697079E-03  1.86899360193E-03  1.91630844059E-03  1.96482106010E-03
  2.01456178242E-03  2.06556169712E-03  2.11785268080E-03  2.17146741704E-03
  2.22643941679E-03  2.28280303934E-03  2.34059351379E-03  2.39984696106E-03
  2.46060041649E-03  2.52289185297E-03  2.58676020467E-03  2.65224539140E-03
  2.71938834351E-03  2.78823102755E-03  2.85881647244E-03  2.93118879637E-03
  3.00539323440E-03  3.08147616673E-03  3.15948514766E-03  3.23946893534E-03
  3.32147752224E-03  3.40556216641E-03  3.49177542348E-03  3.58017117954E-03
  3.67080468482E-03  3.76373258821E-03  3.85901297268E-03  3.95670539156E-03
  4.05687090580E-03  4.15957212211E-03  4.26487323208E-03  4.37284005234E-03
  4.48354006568E-03  4.59704246319E-03  4.71341818757E-03  4.83273997745E-03
  4.95508241281E-03  5.08052196167E-03  5.20913702783E-03  5.34100799989E-03
  5.47621730151E-03  5.61484944288E-03  5.75699107363E-03  5.90273103689E-03
  6.05216042488E-03  6.20537263585E-03  6.36246343240E-03  6.52353100139E-03
  6.68867601531E-03  6.85800169516E-03  7.03161387500E-03  7.20962106810E-03
  7.39213453475E-03  7.57926835180E-03  7.77113948399E-03  7.96786785701E-03
  8.16957643251E-03  8.37639128490E-03  8.58844168021E-03  8.80586015684E-03
  9.02878260840E-03  9.25734836869E-03  9.49170029876E-03  9.73198487617E-03
  9.97835228663E-03  1.02309565178E-02  1.04899554555E-02  1.07555109825E-02
  1.10277890797E-02  1.13069599297E-02  1.15931980235E-02  1.18866822691E-02
  1.21875961037E-02  1.24961276084E-02  1.28124696253E-02  1.31368198784E-02
  1.34693810973E-02  1.38103611436E-02  1.41599731408E-02  1.45184356078E-02
  1.48859725954E-02  1.52628138262E-02  1.56491948381E-02  1.60453571319E-02
  1.64515483219E-02  1.68680222909E-02  1.72950393486E-02  1.77328663945E-02
  1.81817770849E-02  1.86420520035E-02  1.91139788372E-02  1.95978525555E-02
  2.00939755954E-02  2.06026580498E-02  2.11242178618E-02  2.16589810233E-02
  2.22072817787E-02  2.27694628339E-02  2.33458755702E-02  2.39368802643E-02
  2.45428463136E-02  2.51641524664E-02  2.58011870593E-02  2.64543482598E-02
  2.71240443148E-02  2.78106938061E-02  2.85147259120E-02  2.92365806756E-02
  2.99767092795E-02  3.07355743282E-02  3.15136501371E-02  3.23114230288E-02
  3.31293916375E-02  3.39680672201E-02  3.48279739761E-02  3.57096493753E-02
  3.66136444935E-02  3.75405243570E-02  3.84908682961E-02  3.94652703064E-02
  4.04643394211E-02  4.14887000909E-02  4.25389925745E-02  4.36158733389E-02
  4.47200154696E-02  4.58521090914E-02  4.70128617998E-02  4.82029991028E-02
  4.94232648751E-02  5.06744218225E-02  5.19572519588E-02  5.32725570946E-02
  5.46211593385E-02  5.60039016107E-02  5.74216481702E-02  5.88752851547E-02
  6.03657211347E-02  6.18938876811E-02  6.34607399479E-02  6.50672572686E-02
  6.67144437689E-02  6.84033289940E-02  7.01349685521E-02  7.19104447744E-02
  7.37308673912E-02  7.55973742259E-02  7.75111319062E-02  7.94733365927E-02
  8.14852147274E-02  8.35480237996E-02  8.56630531320E-02  8.78316246869E-02
  9.00550938921E-02  9.23348504882E-02  9.46723193973E-02  9.70689616135E-02
  9.95262751163E-02  1.02045795807E-01  1.04629098467E-01  1.07277797745E-01
  1.09993549165E-01  1.12778050160E-01  1.15633041132E-01  1.18560306545E-01
  1.21561676035E-01  1.24639025556E-01  1.27794278550E-01  1.31029407154E-01
  1.34346433429E-01  1.37747430624E-01  1.41234524472E-01  1.44809894522E-01
  1.48475775495E-01  1.52234458687E-01  1.56088293397E-01  1.60039688397E-01
  1.64091113438E-01  1.68245100792E-01  1.72504246837E-01  1.76871213677E-01
  1.81348730809E-01  1.85939596827E-01  1.90646681171E-01  1.95472925923E-01
  2.00421347642E-01  2.05495039254E-01  2.10697171980E-01  2.16030997323E-01
  2.21499849098E-01  2.27107145514E-01  2.32856391315E-01  2.38751179967E-01
  2.44795195903E-01  2.50992216832E-01  2.57346116092E-01  2.63860865077E-01
  2.70540535719E-01  2.77389303028E-01  2.84411447707E-01  2.91611358824E-01
  2.98993536559E-01  3.06562595014E-01  3.14323265095E-01  3.22280397475E-01
  3.30438965620E-01  3.38804068901E-01  3.47380935780E-01  3.56174927078E-01
  3.65191539325E-01  3.74436408198E-01  3.83915312040E-01  3.93634175476E-01
  4.03599073111E-01  4.13816233331E-01  4.24292042193E-01  4.35033047419E-01
  4.46045962487E-01  4.57337670827E-01  4.68915230125E-01  4.80785876732E-01
  4.92957030188E-01  5.05436297861E-01  5.18231479699E-01  5.31350573107E-01
  5.44801777947E-01  5.58593501658E-01  5.72734364517E-01  5.87233205023E-01
  6.02099085425E-01  6.17341297380E-01  6.32969367769E-01  6.48993064642E-01
  6.65422403334E-01  6.82267652714E-01  6.99539341613E-01  7.17248265398E-01
  7.35405492723E-01  7.54022372445E-01  7.73110540722E-01  7.92681928280E-01
  8.12748767872E-01  8.33323601927E-01  8.54419290386E-01  8.76049018741E-01
  8.98226306276E-01  9.20965014518E-01  9.44279355900E-01  9.68183902644E-01
  9.92693595869E-01  1.01782375493E+00  1.04359008700E+00  1.07000869687E+00
  1.09709609704E+00  1.12486921800E+00  1.15334541887E+00  1.18254249819E+00
  1.21247870510E+00  1.24317275070E+00  1.27464381975E+00  1.30691158272E+00
  1.33999620799E+00  1.37391837453E+00  1.40869928482E+00  1.44436067804E+00
  1.48092484372E+00  1.51841463567E+00  1.55685348622E+00  1.59626542090E+00
  1.63667507346E+00  1.67810770124E+00  1.72058920099E+00  1.76414612503E+00
  1.80880569785E+00  1.85459583313E+00  1.90154515121E+00  1.94968299694E+00
  1.99903945803E+00  2.04964538389E+00  2.10153240485E+00  2.15473295201E+00
  2.20928027743E+00  2.26520847496E+00  2.32255250156E+00  2.38134819910E+00
  2.44163231681E+00  2.50344253423E+00  2.56681748475E+00  2.63179677978E+00
  2.69842103350E+00  2.76673188822E+00  2.83677204047E+00  2.90858526762E+00
  2.98221645526E+00  3.05771162530E+00  3.13511796466E+00  3.21448385484E+00
  3.29585890209E+00  3.37929396847E+00  3.46484120361E+00  3.55255407731E+00
  3.64248741299E+00  3.73469742190E+00  3.82924173830E+00  3.92617945546E+00
  4.02557116262E+00  4.12747898282E+00  4.23196661177E+00  4.33909935764E+00
  4.44894418189E+00  4.56156974110E+00  4.67704642992E+00  4.79544642503E+00
  4.91684373029E+00  5.04131422296E+00  5.16893570116E+00  5.29978793245E+00
  5.43395270376E+00  5.57151387242E+00  5.71255741864E+00  5.85717149924E+00
  6.00544650271E+00  6.15747510577E+00  6.31335233124E+00  6.47317560746E+00
  6.63704482918E+00  6.80506242000E+00  6.97733339638E+00  7.15396543329E+00
  7.33506893150E+00  7.52075708659E+00  7.71114595972E+00  7.90635455011E+00
  8.10650486949E+00  8.31172201834E+00  8.52213426404E+00  8.73787312110E+00
  8.95907343333E+00  9.18587345812E+00  9.41841495287E+00  9.65684326359E+00
  9.90130741574E+00  1.01519602074E+01  1.04089583046E+01  1.06724623397E+01
  1.09426370111E+01  1.12196511870E+01  1.15036780100E+01  1.17948950064E+01
  1.20934841961E+01  1.23996322071E+01  1.27135303919E+01  1.30353749471E+01
  1.33653670360E+01  1.37037129144E+01  1.40506240595E+01  1.44063173021E+01
  1.47710149619E+01  1.51449449870E+01  1.55283410957E+01  1.59214429232E+01
  1.63244961707E+01  1.67377527598E+01  1.71614709893E+01  1.75959156968E+01
  1.80413584244E+01  1.84980775884E+01  1.89663586531E+01  1.94464943093E+01
  1.99387846576E+01  2.04435373954E+01  2.09610680095E+01  2.14916999735E+01
  2.20357649497E+01  2.25936029963E+01  2.31655627802E+01  2.37520017951E+01
  2.43532865843E+01  2.49697929703E+01  2.56019062899E+01  2.62500216343E+01
  2.69145440968E+01  2.75958890255E+01  2.82944822832E+01  2.90107605134E+01
  2.97451714134E+01  3.04981740138E+01  3.12702389657E+01  3.20618488350E+01
  3.28734984036E+01  3.37056949787E+01  3.45589587105E+01  3.54338229165E+01
  3.63308344153E+01  3.72505538684E+01  3.81935561302E+01  3.91604306079E+01
  4.01517816296E+01  4.11682288218E+01  4.22104074973E+01  4.32789690515E+01
  4.43745813703E+01  4.54979292469E+01  4.66497148104E+01  4.78306579643E+01
  4.90414968365E+01  5.02829882407E+01  5.15559081493E+01  5.28610521789E+01
  5.41992360869E+01  5.55712962818E+01  5.69780903460E+01  5.84204975714E+01
  5.98994195095E+01  6.14157805348E+01  6.29705284222E+01  6.45646349397E+01
  6.61990964559E+01  6.78749345623E+01  6.95931967124E+01  7.13549568759E+01
  7.31613162102E+01  7.50134037488E+01  7.69123771067E+01  7.88594232041E+01
  8.08557590080E+01  8.29026322934E+01  8.50013224228E+01  8.71531411457E+01
  8.93594334189E+01  9.16215782469E+01  9.39409895439E+01  9.63191170175E+01
  9.87574470746E+01  1.01257503751E+02  1.03820849664E+02  1.06449086987E+02
  1.09143858455E+02  1.11906848387E+02  1.14739783742E+02  1.17644435198E+02
  1.20622618255E+02  1.23676194375E+02  1.26807072143E+02  1.30017208458E+02
  1.33308609762E+02  1.36683333286E+02  1.40143488343E+02
  </PP_R>
  <PP_RAB>
  1.02742245772E-09  1.05343178107E-09  1.08009953357E-09  1.10744238344E-09
  1.13547742085E-09  1.16422216861E-09  1.19369459313E-09  1.22391311562E-09
  1.25489662365E-09  1.28666448293E-09  1.31923654939E-09  1.35263318163E-09
  1.38687525365E-09  1.42198416785E-09  1.45798186844E-09  1.49489085517E-09
  1.53273419734E-09  1.57153554827E-09  1.61131916009E-09  1.65210989883E-09
  1.69393326004E-09  1.73681538467E-09  1.78078307547E-09  1.82586381365E-09
  1.87208577615E-09  1.91947785321E-09  1.96806966641E-09  2.01789158721E-09
  2.06897475595E-09  2.12135110126E-09  2.17505336006E-09  2.23011509802E-09
  2.28657073051E-09  2.34445554414E-09  2.40380571880E-09  2.46465835029E-09
  2.52705147348E-09  2.59102408610E-09  2.65661617312E-09  2.72386873173E-09
  2.79282379697E-09  2.86352446799E-09  2.93601493502E-09  3.01034050696E-09
  3.08654763972E-09  3.16468396522E-09  3.24479832122E-09  3.32694078180E-09
  3.41116268867E-09  3.49751668326E-09  3.58605673964E-09  3.67683819821E-09
  3.76991780034E-09  3.86535372383E-09  3.96320561922E-09  4.06353464713E-09
  4.16640351648E-09  4.27187652365E-09  4.38001959271E-09  4.49090031660E-09
  4.60458799938E-09  4.72115369955E-09  4.84067027447E-09  4.96321242588E-09
  5.08885674663E-09  5.21768176850E-09  5.34976801133E-09  5.48519803332E-09
  5.62405648263E-09  5.76643015033E-09  5.91240802458E-09  6.06208134631E-09
  6.21554366622E-09  6.37289090325E-09  6.53422140456E-09  6.69963600695E-09
  6.86923809993E-09  7.04313369034E-09  7.22143146859E-09  7.40424287657E-09
  7.59168217738E-09  7.78386652669E-09  7.98091604596E-09  8.18295389756E-09
  8.39010636172E-09  8.60250291548E-09  8.82027631360E-09  9.04356267153E-09
  9.27250155053E-09  9.50723604485E-09  9.74791287118E-09  9.99468246037E-09
  1.02476990515E-08  1.05071207880E-08  1.07731098172E-08  1.10458323906E-08
  1.13254589689E-08  1.16121643277E-08  1.19061276672E-08  1.22075327240E-08
  1.25165678862E-08  1.28334263108E-08  1.31583060446E-08  1.34914101481E-08
  1.38329468220E-08  1.41831295380E-08  1.45421771717E-08  1.49103141395E-08
  1.52877705390E-08  1.56747822927E-08  1.60715912956E-08  1.64784455663E-08
  1.68955994019E-08  1.73233135371E-08  1.77618553071E-08  1.82114988150E-08
  1.86725251024E-08  1.91452223259E-08  1.96298859365E-08  2.01268188649E-08
  2.06363317102E-08  2.11587429346E-08  2.16943790622E-08  2.22435748828E-08
  2.28066736619E-08  2.33840273544E-08  2.39759968252E-08  2.45829520746E-08
  2.52052724692E-08  2.58433469796E-08  2.64975744231E-08  2.71683637132E-08
  2.78561341151E-08  2.85613155076E-08  2.92843486520E-08  3.00256854676E-08
  3.07857893140E-08  3.15651352809E-08  3.23642104850E-08  3.31835143741E-08
  3.40235590399E-08  3.48848695376E-08  3.57679842145E-08  3.66734550458E-08
  3.76018479803E-08  3.85537432938E-08  3.95297359520E-08  4.05304359819E-08
  4.15564688537E-08  4.26084758713E-08  4.36871145734E-08  4.47930591442E-08
  4.59270008350E-08  4.70896483965E-08  4.82817285211E-08  4.95039862978E-08
  5.07571856773E-08  5.20421099502E-08  5.33595622360E-08  5.47103659851E-08
  5.60953654939E-08  5.75154264323E-08  5.89714363844E-08  6.04643054040E-08
  6.19949665827E-08  6.35643766337E-08  6.51735164892E-08  6.68233919141E-08
  6.85150341343E-08  7.02495004812E-08  7.20278750526E-08  7.38512693907E-08
  7.57208231762E-08  7.76377049411E-08  7.96031127989E-08  8.16182751936E-08
  8.36844516671E-08  8.58029336471E-08  8.79750452537E-08  9.02021441274E-08
  9.24856222776E-08  9.48269069523E-08  9.72274615308E-08  9.96887864377E-08
  1.02212420081E-07  1.04799939815E-07  1.07452962922E-07  1.10173147629E-07
  1.12962194140E-07  1.15821845699E-07  1.18753889683E-07  1.21760158713E-07
  1.24842531806E-07  1.28002935545E-07  1.31243345286E-07  1.34565786389E-07
  1.37972335490E-07  1.41465121792E-07  1.45046328401E-07  1.48718193686E-07
  1.52483012683E-07  1.56343138527E-07  1.60300983922E-07  1.64359022650E-07
  1.68519791118E-07  1.72785889941E-07  1.77159985569E-07  1.81644811956E-07
  1.86243172264E-07  1.90957940616E-07  1.95792063898E-07  2.00748563593E-07
  2.05830537676E-07  2.11041162545E-07  2.16383695010E-07  2.21861474329E-07
  2.27477924291E-07  2.33236555361E-07  2.39140966871E-07  2.45194849270E-07
  2.51401986431E-07  2.57766258017E-07  2.64291641906E-07  2.70982216675E-07
  2.77842164150E-07  2.84875772022E-07  2.92087436525E-07  2.99481665185E-07
  3.07063079634E-07  3.14836418503E-07  3.22806540383E-07  3.30978426859E-07
  3.39357185626E-07  3.47948053681E-07  3.56756400596E-07  3.65787731875E-07
  3.75047692394E-07  3.84542069929E-07  3.94276798776E-07  4.04257963457E-07
  4.14491802525E-07  4.24984712462E-07  4.35743251679E-07  4.46774144613E-07
  4.58084285931E-07  4.69680744840E-07  4.81570769503E-07  4.93761791574E-07
  5.06261430839E-07  5.19077499977E-07  5.32218009451E-07  5.45691172505E-07
  5.59505410306E-07  5.73669357202E-07  5.88191866121E-07  6.03082014103E-07
  6.18349107976E-07  6.34002690171E-07  6.50052544685E-07  6.66508703201E-07
  6.83381451353E-07  7.00681335159E-07  7.18419167607E-07  7.36606035422E-07
  7.55253305988E-07  7.74372634456E-07  7.93975971028E-07  8.14075568428E-07
  8.34683989559E-07  8.55814115354E-07  8.77479152831E-07  8.99692643342E-07
  9.22468471044E-07  9.45820871568E-07  9.69764440926E-07  9.94314144629E-07
  1.01948532704E-06  1.04529372097E-06  1.07175545750E-06  1.09888707607E-06
  1.12670553485E-06  1.15522822126E-06  1.18447296291E-06  1.21445803873E-06
  1.24520219035E-06  1.27672463388E-06  1.30904507186E-06  1.34218370562E-06
  1.37616124790E-06  1.41099893575E-06  1.44671854387E-06  1.48334239817E-06
  1.52089338976E-06  1.55939498923E-06  1.59887126132E-06  1.63934688001E-06
  1.68084714386E-06  1.72339799189E-06  1.76702601976E-06  1.81175849642E-06
  1.85762338112E-06  1.90464934090E-06  1.95286576852E-06  2.00230280082E-06
  2.05299133755E-06  2.10496306070E-06  2.15825045428E-06  2.21288682465E-06
  2.26890632132E-06  2.32634395831E-06  2.38523563599E-06  2.44561816360E-06
  2.50752928216E-06  2.57100768816E-06  2.63609305766E-06  2.70282607112E-06
  2.77124843887E-06  2.84140292710E-06  2.91333338466E-06  2.98708477042E-06
  3.06270318140E-06  3.14023588157E-06  3.21973133139E-06  3.30123921810E-06
  3.38481048678E-06  3.47049737221E-06  3.55835343147E-06  3.64843357745E-06
  3.74079411319E-06  3.83549276702E-06  3.93258872869E-06  4.03214268633E-06
  4.13421686441E-06  4.23887506260E-06  4.34618269570E-06  4.45620683446E-06
  4.56901624756E-06  4.68468144455E-06  4.80327471993E-06  4.92487019838E-06
  5.04954388102E-06  5.17737369296E-06  5.30843953200E-06  5.44282331855E-06
  5.58060904685E-06  5.72188283747E-06  5.86673299113E-06  6.01525004388E-06
  6.16752682373E-06  6.32365850861E-06  6.48374268591E-06  6.64787941345E-06
  6.81617128204E-06  6.98872347956E-06  7.16564385675E-06  7.34704299462E-06
  7.53303427353E-06  7.72373394408E-06  7.91926119977E-06  8.11973825151E-06
  8.32529040397E-06  8.53604613395E-06  8.75213717063E-06  8.97369857795E-06
  9.20086883900E-06  9.43378994259E-06  9.67260747199E-06  9.91747069593E-06
  1.01685326619E-05  1.04259502918E-05  1.06898844800E-05  1.09605001940E-05
  1.12379665774E-05  1.15224570558E-05  1.18141494449E-05  1.21132260620E-05
  1.24198738397E-05  1.27342844428E-05  1.30566543883E-05  1.33871851678E-05
  1.37260833738E-05  1.40735608287E-05  1.44298347173E-05  1.47951277223E-05
  1.51696681638E-05  1.55536901417E-05  1.59474336822E-05  1.63511448879E-05
  1.67650760915E-05  1.71894860133E-05  1.76246399235E-05  1.80708098074E-05
  1.85282745356E-05  1.89973200386E-05  1.94782394850E-05  1.99713334652E-05
  2.04769101789E-05  2.09952856280E-05  2.15267838142E-05  2.20717369409E-05
  2.26304856218E-05  2.32033790928E-05  2.37907754311E-05  2.43930417785E-05
  2.50105545711E-05  2.56436997744E-05  2.62928731249E-05  2.69584803770E-05
  2.76409375569E-05  2.83406712226E-05  2.90581187303E-05  2.97937285082E-05
  3.05479603362E-05  3.13212856339E-05  3.21141877547E-05  3.29271622883E-05
  3.37607173702E-05  3.46153739994E-05  3.54916663642E-05  3.63901421758E-05
  3.73113630109E-05  3.82559046624E-05  3.92243574997E-05  4.02173268373E-05
  4.12354333134E-05  4.22793132776E-05  4.33496191889E-05  4.44470200233E-05
  4.55722016922E-05  4.67258674706E-05  4.79087384372E-05  4.91215539249E-05
  5.03650719829E-05  5.16400698503E-05  5.29473444425E-05  5.42877128485E-05
  5.56620128423E-05  5.70711034060E-05  5.85158652672E-05  5.99972014490E-05
  6.15160378348E-05  6.30733237468E-05  6.46700325393E-05  6.63071622074E-05
  6.79857360103E-05  6.97068031113E-05  7.14714392335E-05  7.32807473317E-05
  7.51358582825E-05  7.70379315907E-05  7.89881561138E-05  8.09877508059E-05
  8.30379654785E-05  8.51400815827E-05  8.72954130094E-05  8.95053069110E-05
  9.17711445430E-05  9.40943421278E-05  9.64763517394E-05  9.89186622115E-05
  1.01422800067E-04  1.03990330475E-04  1.06622858224E-04  1.09322028731E-04
  1.12089529064E-04  1.14927089002E-04  1.17836482112E-04  1.20819526859E-04
  1.23878087743E-04  1.27014076464E-04  1.30229453118E-04  1.33526227420E-04
  1.36906459960E-04  1.40372263495E-04  1.43925804263E-04  1.47569303345E-04
  1.51305038045E-04  1.55135343319E-04  1.59062613232E-04  1.63089302457E-04
  1.67217927805E-04  1.71451069801E-04  1.75791374298E-04  1.80241554125E-04
  1.84804390791E-04  1.89482736218E-04  1.94279514522E-04  1.99197723848E-04
  2.04240438235E-04  2.09410809545E-04  2.14712069428E-04  2.20147531343E-04
  2.25720592632E-04  2.31434736640E-04  2.37293534891E-04  2.43300649327E-04
  2.49459834588E-04  2.55774940367E-04  2.62249913809E-04  2.68888801985E-04
  2.75695754415E-04  2.82675025666E-04  2.89830978010E-04  2.97168084150E-04
  3.04690930016E-04  3.12404217632E-04  3.20312768054E-04  3.28421524383E-04
  3.36735554855E-04  3.45260056011E-04  3.54000355942E-04  3.62961917618E-04
  3.72150342308E-04  3.81571373077E-04  3.91230898375E-04  4.01134955720E-04
  4.11289735471E-04  4.21701584695E-04  4.32377011137E-04  4.43322687286E-04
  4.54545454545E-04  4.66052327511E-04  4.77850498353E-04  4.89947341311E-04
  5.02350417307E-04  5.15067478667E-04  5.28106473967E-04  5.41475553006E-04
  5.55183071891E-04  5.69237598269E-04  5.83647916676E-04  5.98423034031E-04
  6.13572185262E-04  6.29104839082E-04  6.45030703906E-04  6.61359733917E-04
  6.78102135291E-04  6.95268372574E-04  7.12869175223E-04  7.30915544312E-04
  7.49418759409E-04  7.68390385627E-04  7.87842280849E-04  8.07786603143E-04
  8.28235818359E-04  8.49202707924E-04  8.70700376824E-04  8.92742261804E-04
  9.15342139759E-04  9.38514136348E-04  9.62272734824E-04  9.86632785083E-04
  1.01160951295E-03  1.03721852970E-03  1.06347584178E-03  1.09039786089E-03
  1.11800141416E-03  1.14630375471E-03  1.17532257242E-03  1.20507600499E-03
  1.23558264930E-03  1.26686157298E-03  1.29893232639E-03  1.33181495479E-03
  1.36553001088E-03  1.40009856769E-03  1.43554223168E-03  1.47188315629E-03
  1.50914405579E-03  1.54734821945E-03  1.58651952612E-03  1.62668245914E-03
  1.66786212165E-03  1.71008425227E-03  1.75337524123E-03  1.79776214678E-03
  1.84327271220E-03  1.88993538307E-03  1.93777932508E-03  1.98683444224E-03
  2.03713139561E-03  2.08870162241E-03  2.14157735572E-03  2.19579164460E-03
  2.25137837473E-03  2.30837228963E-03  2.36680901235E-03  2.42672506776E-03
  2.48815790533E-03  2.55114592259E-03  2.61572848909E-03  2.68194597105E-03
  2.74983975655E-03  2.81945228141E-03  2.89082705573E-03  2.96400869106E-03
  3.03904292831E-03  3.11597666632E-03  3.19485799118E-03  3.27573620628E-03
  3.35866186315E-03  3.44368679302E-03  3.53086413923E-03  3.62024839047E-03