<PP_INFO>
Generated using Vanderbilt code, version   7  3  6                              
Author: unknown    Generation date:   21    6   17                              
Automatically converted from original format                                    
    1        The Pseudo was generated with a Scalar-Relativistic Calculation
  2.00000000000E+00    Local Potential cutoff radius
nl pn  l   occ               Rcut            Rcut US             E pseu
3D  3  2  9.50      1.40000000000      2.00000000000     -1.81342461598
4S  4  0  1.00      1.40000000000      2.10000000000     -1.10412688152
4P  4  1  0.50      1.40000000000      2.20000000000     -0.64051126730
</PP_INFO>


<PP_HEADER>
   0                   Version Number
  Cu                   Element
   US                  Ultrasoft pseudopotential
    T                  Nonlinear Core Correction
SLA  PW   PBE  PBE     PBE  Exchange-Correlation functional
   12.00000000000      Z valence
 -146.53216073087      Total energy
    0.00000    0.00000 Suggested cutoff for wfc and rho
    2                  Max angular momentum component
  867                  Number of points in mesh
    3    6             Number of Wavefunctions, Number of Projectors
 Wavefunctions         nl  l   occ
                       3D  2  9.50
                       4S  0  1.00
                       4P  1  0.50
</PP_HEADER>


<PP_MESH>
  <PP_R>
  0.00000000000E+00  1.46106238207E-06  2.94709958648E-06  4.45853852296E-06
  5.99581339868E-06  7.55936584296E-06  9.14964503416E-06  1.07671078287E-05
  1.24122188924E-05  1.40854508338E-05  1.57872843400E-05  1.75182083149E-05
  1.92787200195E-05  2.10693252146E-05  2.28905383066E-05  2.47428824947E-05
  2.66268899215E-05  2.85431018259E-05  3.04920686986E-05  3.24743504399E-05
  3.44905165211E-05  3.65411461476E-05  3.86268284258E-05  4.07481625317E-05
  4.29057578835E-05  4.51002343167E-05  4.73322222620E-05  4.96023629261E-05
  5.19113084767E-05  5.42597222290E-05  5.66482788370E-05  5.90776644867E-05
  6.15485770935E-05  6.40617265030E-05  6.66178346942E-05  6.92176359876E-05
  7.18618772558E-05  7.45513181382E-05  7.72867312590E-05  8.00689024495E-05
  8.28986309737E-05  8.57767297578E-05  8.87040256239E-05  9.16813595275E-05
  9.47095867989E-05  9.77895773893E-05  1.00922216120E-04  1.04108402939E-04
  1.07349053174E-04  1.10645097802E-04  1.13997483713E-04  1.17407173983E-04
  1.20875148149E-04  1.24402402494E-04  1.27989950329E-04  1.31638822287E-04
  1.35350066620E-04  1.39124749494E-04  1.42963955304E-04  1.46868786980E-04
  1.50840366303E-04  1.54879834233E-04  1.58988351228E-04  1.63167097588E-04
  1.67417273786E-04  1.71740100813E-04  1.76136820536E-04  1.80608696046E-04
  1.85157012027E-04  1.89783075122E-04  1.94488214310E-04  1.99273781285E-04
  2.04141150849E-04  2.09091721302E-04  2.14126914849E-04  2.19248178002E-04
  2.24456982001E-04  2.29754823235E-04  2.35143223672E-04  2.40623731293E-04
  2.46197920544E-04  2.51867392781E-04  2.57633776733E-04  2.63498728971E-04
  2.69463934382E-04  2.75531106655E-04  2.81701988771E-04  2.87978353504E-04
  2.94362003932E-04  3.00854773956E-04  3.07458528822E-04  3.14175165661E-04
  3.21006614033E-04  3.27954836481E-04  3.35021829094E-04  3.42209622083E-04
  3.49520280363E-04  3.56955904142E-04  3.64518629533E-04  3.72210629160E-04
  3.80034112785E-04  3.87991327945E-04  3.96084560592E-04  4.04316135756E-04
  4.12688418210E-04  4.21203813148E-04  4.29864766878E-04  4.38673767525E-04
  4.47633345744E-04  4.56746075448E-04  4.66014574549E-04  4.75441505707E-04
  4.85029577096E-04  4.94781543185E-04  5.04700205524E-04  5.14788413553E-04
  5.25049065419E-04  5.35485108809E-04  5.46099541795E-04  5.56895413701E-04
  5.67875825969E-04  5.79043933061E-04  5.90402943357E-04  6.01956120081E-04
  6.13706782238E-04  6.25658305565E-04  6.37814123504E-04  6.50177728185E-04
  6.62752671433E-04  6.75542565787E-04  6.88551085535E-04  7.01781967773E-04
  7.15239013478E-04  7.28926088598E-04  7.42847125165E-04  7.57006122425E-04
  7.71407147981E-04  7.86054338972E-04  8.00951903251E-04  8.16104120600E-04
  8.31515343957E-04  8.47190000670E-04  8.63132593764E-04  8.79347703237E-04
  8.95839987376E-04  9.12614184096E-04  9.29675112298E-04  9.47027673258E-04
  9.64676852030E-04  9.82627718881E-04  1.00088543075E-03  1.01945523272E-03
  1.03834245954E-03  1.05755253714E-03  1.07709098421E-03  1.09696341377E-03
  1.11717553477E-03  1.13773315377E-03  1.15864217658E-03  1.17990860996E-03
  1.20153856333E-03  1.22353825057E-03  1.24591399176E-03  1.26867221502E-03
  1.29181945834E-03  1.31536237148E-03  1.33930771786E-03  1.36366237653E-03
  1.38843334409E-03  1.41362773677E-03  1.43925279244E-03  1.46531587267E-03
  1.49182446488E-03  1.51878618447E-03  1.54620877704E-03  1.57410012056E-03
  1.60246822766E-03  1.63132124797E-03  1.66066747039E-03  1.69051532553E-03
  1.72087338810E-03  1.75175037938E-03  1.78315516973E-03  1.81509678114E-03
  1.84758438982E-03  1.88062732883E-03  1.91423509077E-03  1.94841733050E-03
  1.98318386791E-03  2.01854469076E-03  2.05450995752E-03  2.09109000032E-03
  2.12829532791E-03  2.16613662864E-03  2.20462477360E-03  2.24377081968E-03
  2.28358601279E-03  2.32408179106E-03  2.36526978814E-03  2.40716183654E-03
  2.44976997105E-03  2.49310643216E-03  2.53718366959E-03  2.58201434587E-03
  2.62761134000E-03  2.67398775111E-03  2.72115690224E-03  2.76913234419E-03
  2.81792785935E-03  2.86755746575E-03  2.91803542101E-03  2.96937622647E-03
  3.02159463134E-03  3.07470563696E-03  3.12872450111E-03  3.18366674235E-03
  3.23954814452E-03  3.29638476128E-03  3.35419292067E-03  3.41298922988E-03
  3.47279057993E-03  3.53361415060E-03  3.59547741533E-03  3.65839814623E-03
  3.72239441921E-03  3.78748461916E-03  3.85368744525E-03  3.92102191625E-03
  3.98950737606E-03  4.05916349922E-03  4.13001029660E-03  4.20206812110E-03
  4.27535767355E-03  4.34990000862E-03  4.42571654087E-03  4.50282905092E-03
  4.58125969172E-03  4.66103099487E-03  4.74216587711E-03  4.82468764693E-03
  4.90862001123E-03  4.99398708217E-03  5.08081338405E-03  5.16912386038E-03
  5.25894388105E-03  5.35029924963E-03  5.44321621073E-03  5.53772145761E-03
  5.63384213979E-03  5.73160587089E-03  5.83104073653E-03  5.93217530242E-03
  6.03503862257E-03  6.13966024762E-03  6.24607023335E-03  6.35429914927E-03
  6.46437808746E-03  6.57633867147E-03  6.69021306542E-03  6.80603398320E-03
  6.92383469793E-03  7.04364905148E-03  7.16551146418E-03  7.28945694476E-03
  7.41552110035E-03  7.54374014674E-03  7.67415091878E-03  7.80679088097E-03
  7.94169813820E-03  8.07891144671E-03  8.21847022524E-03  8.36041456631E-03
  8.50478524780E-03  8.65162374460E-03  8.80097224057E-03  8.95287364065E-03
  9.10737158317E-03  9.26451045239E-03  9.42433539128E-03  9.58689231445E-03
  9.75222792135E-03  9.92038970970E-03  1.00914259891E-02  1.02653858951E-02
  1.04423194028E-02  1.06222773420E-02  1.08053114109E-02  1.09914741918E-02
  1.11808191657E-02  1.13734007276E-02  1.15692742025E-02  1.17684958612E-02
  1.19711229360E-02  1.21772136379E-02  1.23868271728E-02  1.26000237584E-02
  1.28168646422E-02  1.30374121183E-02  1.32617295456E-02  1.34898813663E-02
  1.37219331240E-02  1.39579514826E-02  1.41980042457E-02  1.44421603757E-02
  1.46904900141E-02  1.49430645010E-02  1.51999563963E-02  1.54612395000E-02
  1.57269888737E-02  1.59972808621E-02  1.62721931148E-02  1.65518046088E-02
  1.68361956710E-02  1.71254480016E-02  1.74196446970E-02  1.77188702744E-02
  1.80232106954E-02  1.83327533912E-02  1.86475872874E-02  1.89678028296E-02
  1.92934920097E-02  1.96247483917E-02  1.99616671393E-02  2.03043450426E-02
  2.06528805465E-02  2.10073737784E-02  2.13679265773E-02  2.17346425232E-02
  2.21076269663E-02  2.24869870580E-02  2.28728317810E-02  2.32652719810E-02
  2.36644203986E-02  2.40703917013E-02  2.44833025168E-02  2.49032714665E-02
  2.53304191993E-02  2.57648684264E-02  2.62067439567E-02  2.66561727326E-02
  2.71132838661E-02  2.75782086765E-02  2.80510807277E-02  2.85320358666E-02
  2.90212122625E-02  2.95187504461E-02  3.00247933506E-02  3.05394863523E-02
  3.10629773125E-02  3.15954166202E-02  3.21369572347E-02  3.26877547302E-02
  3.32479673402E-02  3.38177560030E-02  3.43972844077E-02  3.49867190417E-02
  3.55862292382E-02  3.61959872248E-02  3.68161681731E-02  3.74469502493E-02
  3.80885146647E-02  3.87410457284E-02  3.94047309000E-02  4.00797608434E-02
  4.07663294815E-02  4.14646340523E-02  4.21748751652E-02  4.28972568587E-02
  4.36319866591E-02  4.43792756401E-02  4.51393384832E-02  4.59123935399E-02
  4.66986628939E-02  4.74983724251E-02  4.83117518747E-02  4.91390349109E-02
  4.99804591960E-02  5.08362664549E-02  5.17067025445E-02  5.25920175243E-02
  5.34924657282E-02  5.44083058374E-02  5.53398009551E-02  5.62872186818E-02
  5.72508311923E-02  5.82309153139E-02  5.92277526057E-02  6.02416294399E-02
  6.12728370835E-02  6.23216717826E-02  6.33884348471E-02  6.44734327375E-02
  6.55769771525E-02  6.66993851192E-02  6.78409790836E-02  6.90020870036E-02
  7.01830424431E-02  7.13841846676E-02  7.26058587422E-02  7.38484156300E-02
  7.51122122938E-02  7.63976117977E-02  7.77049834122E-02  7.90347027199E-02
  8.03871517234E-02  8.17627189551E-02  8.31617995888E-02  8.45847955534E-02
  8.60321156481E-02  8.75041756599E-02  8.90013984832E-02  9.05242142411E-02
  9.20730604091E-02  9.36483819408E-02  9.52506313955E-02  9.68802690685E-02
  9.85377631232E-02  1.00223589726E-01  1.01938233181E-01  1.03682186073E-01
  1.05455949406E-01  1.07260032748E-01  1.09094954376E-01  1.10961241430E-01
  1.12859430055E-01  1.14790065566E-01  1.16753702597E-01  1.18750905262E-01
  1.20782247320E-01  1.22848312334E-01  1.24949693847E-01  1.27086995545E-01
  1.29260831432E-01  1.31471826009E-01  1.33720614453E-01  1.36007842797E-01
  1.38334168118E-01  1.40700258723E-01  1.43106794345E-01  1.45554466335E-01
  1.48043977862E-01  1.50576044114E-01  1.53151392504E-01  1.55770762881E-01
  1.58434907739E-01  1.61144592436E-01  1.63900595410E-01  1.66703708409E-01
  1.69554736713E-01  1.72454499366E-01  1.75403829416E-01  1.78403574146E-01
  1.81454595326E-01  1.84557769455E-01  1.87713988015E-01  1.90924157726E-01
  1.94189200808E-01  1.97510055246E-01  2.00887675055E-01  2.04323030561E-01
  2.07817108674E-01  2.11370913177E-01  2.14985465008E-01  2.18661802558E-01
  2.22400981968E-01  2.26204077431E-01  2.30072181504E-01  2.34006405417E-01
  2.38007879398E-01  2.42077752991E-01  2.46217195394E-01  2.50427395788E-01
  2.54709563681E-01  2.59064929259E-01  2.63494743732E-01  2.68000279702E-01
  2.72582831521E-01  2.77243715668E-01  2.81984271124E-01  2.86805859761E-01
  2.91709866725E-01  2.96697700845E-01  3.01770795028E-01  3.06930606676E-01
  3.12178618103E-01  3.17516336961E-01  3.22945296674E-01  3.28467056876E-01
  3.34083203863E-01  3.39795351044E-01  3.45605139410E-01  3.51514237999E-01
  3.57524344382E-01  3.63637185146E-01  3.69854516391E-01  3.76178124237E-01
  3.82609825334E-01  3.89151467385E-01  3.95804929677E-01  4.02572123622E-01
  4.09454993302E-01  4.16455516034E-01  4.23575702932E-01  4.30817599488E-01
  4.38183286159E-01  4.45674878964E-01  4.53294530092E-01  4.61044428523E-01
  4.68926800651E-01  4.76943910930E-01  4.85098062520E-01  4.93391597952E-01
  5.01826899797E-01  5.10406391355E-01  5.19132537348E-01  5.28007844627E-01
  5.37034862899E-01  5.46216185449E-01  5.55554449895E-01  5.65052338939E-01
  5.74712581141E-01  5.84537951701E-01  5.94531273259E-01  6.04695416702E-01
  6.15033301992E-01  6.25547899003E-01  6.36242228376E-01  6.47119362384E-01
  6.58182425817E-01  6.69434596881E-01  6.80879108105E-01  6.92519247276E-01
  7.04358358382E-01  7.16399842568E-01  7.28647159122E-01  7.41103826460E-01
  7.53773423141E-01  7.66659588896E-01  7.79766025670E-01  7.93096498689E-01
  8.06654837540E-01  8.20444937272E-01  8.34470759513E-01  8.48736333610E-01
  8.63245757788E-01  8.78003200322E-01  8.93012900741E-01  9.08279171040E-01
  9.23806396925E-01  9.39599039066E-01  9.55661634384E-01  9.71998797352E-01
  9.88615221320E-01  1.00551567987E+00  1.02270502816E+00  1.04018820438E+00
  1.05797023110E+00  1.07605621674E+00  1.09445135707E+00  1.11316093665E+00
  1.13219033038E+00  1.15154500504E+00  1.17123052086E+00  1.19125253309E+00
  1.21161679368E+00  1.23232915288E+00  1.25339556095E+00  1.27482206987E+00
  1.29661483506E+00  1.31878011716E+00  1.34132428381E+00  1.36425381154E+00
  1.38757528754E+00  1.41129541162E+00  1.43542099812E+00  1.45995897785E+00
  1.48491640010E+00  1.51030043466E+00  1.53611837385E+00  1.56237763469E+00
  1.58908576094E+00  1.61625042534E+00  1.64387943176E+00  1.67198071749E+00
  1.70056235548E+00  1.72963255668E+00  1.75919967240E+00  1.78927219670E+00
  1.81985876883E+00  1.85096817573E+00  1.88260935452E+00  1.91479139510E+00
  1.94752354275E+00  1.98081520079E+00  2.01467593325E+00  2.04911546769E+00
  2.08414369790E+00  2.11977068681E+00  2.15600666939E+00  2.19286205551E+00
  2.23034743302E+00  2.26847357075E+00  2.30725142159E+00  2.34669212568E+00
  2.38680701355E+00  2.42760760945E+00  2.46910563459E+00  2.51131301056E+00
  2.55424186272E+00  2.59790452369E+00  2.64231353691E+00  2.68748166024E+00
  2.73342186960E+00  2.78014736272E+00  2.82767156294E+00  2.87600812303E+00
  2.92517092916E+00  2.97517410485E+00  3.02603201504E+00  3.07775927023E+00
  3.13037073065E+00  3.18388151057E+00  3.23830698259E+00  3.29366278209E+00
  3.34996481173E+00  3.40722924599E+00  3.46547253584E+00  3.52471141344E+00
  3.58496289698E+00  3.64624429555E+00  3.70857321409E+00  3.77196755852E+00
  3.83644554078E+00  3.90202568417E+00  3.96872682858E+00  4.03656813597E+00
  4.10556909583E+00  4.17574953080E+00  4.24712960235E+00  4.31972981662E+00
  4.39357103022E+00  4.46867445632E+00  4.54506167067E+00  4.62275461784E+00
  4.70177561752E+00  4.78214737090E+00  4.86389296724E+00  4.94703589046E+00
  5.03160002592E+00  5.11760966726E+00  5.20508952337E+00  5.29406472554E+00
  5.38456083462E+00  5.47660384839E+00  5.57022020901E+00  5.66543681067E+00
  5.76228100725E+00  5.86078062022E+00  5.96096394660E+00  6.06285976713E+00
  6.16649735450E+00  6.27190648179E+00  6.37911743100E+00  6.48816100176E+00
  6.59906852018E+00  6.71187184785E+00  6.82660339097E+00  6.94329610970E+00
  7.06198352760E+00  7.18269974127E+00  7.30547943013E+00  7.43035786643E+00
  7.55737092531E+00  7.68655509517E+00  7.81794748812E+00  7.95158585066E+00
  8.08750857450E+00  8.22575470761E+00  8.36636396542E+00  8.50937674226E+00
  8.65483412293E+00  8.80277789452E+00  8.95325055842E+00  9.10629534250E+00
  9.26195621357E+00  9.42027788999E+00  9.58130585451E+00  9.74508636736E+00
  9.91166647950E+00  1.00810940462E+01  1.02534177406E+01  1.04286870682E+01
  1.06069523802E+01  1.07882648890E+01  1.09726766821E+01  1.11602407375E+01
  1.13510109385E+01  1.15450420900E+01  1.17423899332E+01  1.19431111623E+01
  1.21472634407E+01  1.23549054174E+01  1.25660967439E+01  1.27808980914E+01
  1.29993711681E+01  1.32215787372E+01  1.34475846346E+01  1.36774537873E+01
  1.39112522324E+01  1.41490471357E+01  1.43909068109E+01  1.46369007398E+01
  1.48870995915E+01  1.51415752435E+01  1.54004008015E+01  1.56636506213E+01
  1.59314003293E+01  1.62037268449E+01  1.64807084023E+01  1.67624245728E+01
  1.70489562880E+01  1.73403858631E+01  1.76367970200E+01  1.79382749120E+01
  1.82449061477E+01  1.85567788166E+01  1.88739825134E+01  1.91966083647E+01
  1.95247490548E+01  1.98584988519E+01  2.01979536360E+01  2.05432109260E+01
  2.08943699074E+01  2.12515314616E+01  2.16147981941E+01  2.19842744644E+01
  2.23600664158E+01  2.27422820063E+01  2.31310310388E+01  2.35264251935E+01
  2.39285780594E+01  2.43376051674E+01  2.47536240229E+01  2.51767541401E+01
  2.56071170762E+01  2.60448364660E+01  2.64900380579E+01  2.69428497498E+01
  2.74034016255E+01  2.78718259928E+01  2.83482574209E+01  2.88328327793E+01
  2.93256912773E+01  2.98269745034E+01  3.03368264667E+01  3.08553936377E+01
  3.13828249908E+01  3.19192720468E+01  3.24648889165E+01  3.30198323451E+01
  3.35842617572E+01  3.41583393024E+01  3.47422299020E+01  3.53361012965E+01
  3.59401240937E+01  3.65544718176E+01  3.71793209584E+01  3.78148510233E+01
  3.84612445877E+01  3.91186873480E+01  3.97873681747E+01  4.04674791669E+01
  4.11592157073E+01  4.18627765186E+01  4.25783637200E+01  4.33061828859E+01
  4.40464431047E+01  4.47993570388E+01  4.55651409858E+01  4.63440149407E+01
  4.71362026589E+01  4.79419317205E+01  4.87614335959E+01  4.95949437121E+01
  5.04427015206E+01  5.13049505656E+01  5.21819385547E+01  5.30739174295E+01
  5.39811434384E+01  5.49038772097E+01  5.58423838271E+01  5.67969329053E+01
  5.77677986678E+01  5.87552600256E+01  5.97596006571E+01  6.07811090901E+01
  6.18200787841E+01  6.28768082151E+01  6.39516009608E+01  6.50447657886E+01
  6.61566167435E+01  6.72874732387E+01  6.84376601474E+01  6.96075078962E+01
  7.07973525596E+01  7.20075359569E+01  7.32384057504E+01  7.44903155453E+01
  7.57636249909E+01  7.70586998844E+01  7.83759122759E+01  7.97156405748E+01
  8.10782696593E+01  8.24641909862E+01  8.38738027040E+01  8.53075097669E+01
  8.67657240511E+01  8.82488644734E+01  8.97573571113E+01  9.12916353256E+01
  9.28521398847E+01  9.44393190914E+01  9.60536289116E+01  9.76955331051E+01
  9.93655033594E+01  1.01064019425E+02  1.02791569251E+02  1.04548649131E+02
  1.06335763840E+02  1.08153426780E+02  1.10002160132E+02  1.11882495000E+02
  1.13794971568E+02  1.15740139254E+02  1.17718556867E+02  1.19730792768E+02
  1.21777425034E+02  1.23859041622E+02  1.25976240540E+02  1.28129630019E+02
  1.30319828686E+02  1.32547465742E+02  1.34813181145E+02  1.37117625791E+02
  1.39461461701E+02  1.41845362216E+02  1.44270012183E+02  1.46736108157E+02
  1.49244358600E+02  1.51795484084E+02  1.54390217497E+02  1.57029304258E+02
  1.59713502523E+02  1.62443583411E+02  1.65220331222E+02  1.68044543662E+02
  1.70917032071E+02  1.73838621661E+02  1.76810151748E+02  1.79832475995E+02
  1.82906462656E+02  1.86032994830E+02  1.89212970707E+02  1.92447303834E+02
  1.95736923372E+02  1.99082774366E+02  2.02485818012E+02
  </PP_R>
  <PP_RAB>
  1.44871547438E-06  1.47347924357E-06  1.49866631483E-06  1.52428392392E-06
  1.55033943029E-06  1.57684031918E-06  1.60379420377E-06  1.63120882741E-06
  1.65909206578E-06  1.68745192919E-06  1.71629656489E-06  1.74563425938E-06
  1.77547344081E-06  1.80582268141E-06  1.83669069992E-06  1.86808636412E-06
  1.90001869339E-06  1.93249686126E-06  1.96553019809E-06  1.99912819370E-06
  2.03330050016E-06  2.06805693451E-06  2.10340748160E-06  2.13936229695E-06
  2.17593170970E-06  2.21312622551E-06  2.25095652967E-06  2.28943349008E-06
  2.32856816043E-06  2.36837178335E-06  2.40885579365E-06  2.45003182161E-06
  2.49191169631E-06  2.53450744901E-06  2.57783131666E-06  2.62189574536E-06
  2.66671339397E-06  2.71229713774E-06  2.75866007199E-06  2.80581551590E-06
  2.85377701631E-06  2.90255835163E-06  2.95217353580E-06  3.00263682230E-06
  3.05396270826E-06  3.10616593861E-06  3.15926151032E-06  3.21326467673E-06
  3.26819095190E-06  3.32405611510E-06  3.38087621529E-06  3.43866757579E-06
  3.49744679895E-06  3.55723077089E-06  3.61803666640E-06  3.67988195383E-06
  3.74278440014E-06  3.80676207598E-06  3.87183336090E-06  3.93801694862E-06
  4.00533185240E-06  4.07379741053E-06  4.14343329181E-06  4.21425950130E-06
  4.28629638600E-06  4.35956464071E-06  4.43408531397E-06  4.50987981414E-06
  4.58696991552E-06  4.66537776459E-06  4.74512588641E-06  4.82623719107E-06
  4.90873498029E-06  4.99264295408E-06  5.07798521758E-06  5.16478628797E-06
  5.25307110152E-06  5.34286502074E-06  5.43419384170E-06  5.52708380139E-06
  5.62156158530E-06  5.71765433507E-06  5.81538965629E-06  5.91479562643E-06
  6.01590080290E-06  6.11873423125E-06  6.22332545354E-06  6.32970451682E-06
  6.43790198171E-06  6.54794893126E-06  6.65987697984E-06  6.77371828219E-06
  6.88950554273E-06  7.00727202490E-06  7.12705156072E-06  7.24887856054E-06
  7.37278802290E-06  7.49881554459E-06  7.62699733087E-06  7.75737020591E-06
  7.88997162328E-06  8.02483967683E-06  8.16201311153E-06  8.30153133466E-06
  8.44343442709E-06  8.58776315485E-06  8.73455898079E-06  8.88386407650E-06
  9.03572133444E-06  9.19017438028E-06  9.34726758538E-06  9.50704607958E-06
  9.66955576414E-06  9.83484332497E-06  1.00029562460E-05  1.01739428227E-05
  1.03478521764E-05  1.05247342677E-05  1.07046399116E-05  1.08876207913E-05
  1.10737294739E-05  1.12630194246E-05  1.14555450228E-05  1.16513615775E-05
  1.18505253428E-05  1.20530935348E-05  1.22591243473E-05  1.24686769690E-05
  1.26818116004E-05  1.28985894708E-05  1.31190728563E-05  1.33433250977E-05
  1.35714106181E-05  1.38033949421E-05  1.40393447145E-05  1.42793277189E-05
  1.45234128978E-05  1.47716703722E-05  1.50241714617E-05  1.52809887049E-05
  1.55421958804E-05  1.58078680281E-05  1.60780814704E-05  1.63529138343E-05
  1.66324440740E-05  1.69167524930E-05  1.72059207676E-05  1.75000319703E-05
  1.77991705935E-05  1.81034225741E-05  1.84128753176E-05  1.87276177239E-05
  1.90477402124E-05  1.93733347480E-05  1.97044948678E-05  2.00413157077E-05
  2.03838940298E-05  2.07323282502E-05  2.10867184673E-05  2.14471664906E-05
  2.18137758698E-05  2.21866519247E-05  2.25659017754E-05  2.29516343730E-05
  2.33439605310E-05  2.37429929571E-05  2.41488462856E-05  2.45616371104E-05
  2.49814840183E-05  2.54085076231E-05  2.58428306004E-05  2.62845777229E-05
  2.67338758960E-05  2.71908541943E-05  2.76556438988E-05  2.81283785347E-05
  2.86091939094E-05  2.90982281519E-05  2.95956217523E-05  3.01015176021E-05
  3.06160610354E-05  3.11393998706E-05  3.16716844528E-05  3.22130676971E-05
  3.27637051324E-05  3.33237549461E-05  3.38933780299E-05  3.44727380252E-05
  3.50620013712E-05  3.56613373516E-05  3.62709181442E-05  3.68909188697E-05
  3.75215176423E-05  3.81628956208E-05  3.88152370608E-05  3.94787293673E-05
  4.01535631488E-05  4.08399322719E-05  4.15380339174E-05  4.22480686361E-05
  4.29702404075E-05  4.37047566974E-05  4.44518285182E-05  4.52116704892E-05
  4.59845008981E-05  4.67705417644E-05  4.75700189023E-05  4.83831619860E-05
  4.92102046160E-05  5.00513843855E-05  5.09069429491E-05  5.17771260924E-05
  5.26621838021E-05  5.35623703382E-05  5.44779443067E-05  5.54091687345E-05
  5.63563111442E-05  5.73196436316E-05  5.82994429434E-05  5.92959905570E-05
  6.03095727613E-05  6.13404807388E-05  6.23890106494E-05  6.34554637155E-05
  6.45401463085E-05  6.56433700365E-05  6.67654518345E-05  6.79067140548E-05
  6.90674845601E-05  7.02480968171E-05  7.14488899930E-05  7.26702090524E-05
  7.39124048566E-05  7.51758342645E-05  7.64608602348E-05  7.77678519307E-05
  7.90971848256E-05  8.04492408111E-05  8.18244083067E-05  8.32230823715E-05
  8.46456648173E-05  8.60925643248E-05  8.75641965599E-05  8.90609842943E-05
  9.05833575261E-05  9.21317536037E-05  9.37066173512E-05  9.53084011966E-05
  9.69375653014E-05  9.85945776928E-05  1.00279914399E-04  1.01994059583E-04
  1.03737505687E-04  1.05510753570E-04  1.07314312650E-04  1.09148701055E-04
  1.11014445770E-04  1.12912082787E-04  1.14842157261E-04  1.16805223664E-04
  1.18801845948E-04  1.20832597703E-04  1.22898062325E-04  1.24998833182E-04
  1.27135513785E-04  1.29308717961E-04  1.31519070030E-04  1.33767204982E-04
  1.36053768664E-04  1.38379417961E-04  1.40744820987E-04  1.43150657276E-04
  1.45597617979E-04  1.48086406061E-04  1.50617736501E-04  1.53192336502E-04
  1.55810945698E-04  1.58474316362E-04  1.61183213632E-04  1.63938415719E-04
  1.66740714141E-04  1.69590913944E-04  1.72489833934E-04  1.75438306916E-04
  1.78437179929E-04  1.81487314491E-04  1.84589586846E-04  1.87744888217E-04
  1.90954125062E-04  1.94218219332E-04  1.97538108737E-04  2.00914747019E-04
  2.04349104220E-04  2.07842166965E-04  2.11394938742E-04  2.15008440194E-04
  2.18683709410E-04  2.22421802225E-04  2.26223792519E-04  2.30090772531E-04
  2.34023853169E-04  2.38024164332E-04  2.42092855232E-04  2.46231094724E-04
  2.50440071645E-04  2.54720995152E-04  2.59075095072E-04  2.63503622254E-04
  2.68007848927E-04  2.72589069069E-04  2.77248598776E-04  2.81987776640E-04
  2.86807964136E-04  2.91710546009E-04  2.96696930678E-04  3.01768550634E-04
  3.06926862855E-04  3.12173349224E-04  3.17509516956E-04  3.22936899027E-04
  3.28457054621E-04  3.34071569571E-04  3.39782056818E-04  3.45590156875E-04
  3.51497538296E-04  3.57505898158E-04  3.63616962547E-04  3.69832487053E-04
  3.76154257276E-04  3.82584089338E-04  3.89123830406E-04  3.95775359220E-04
  4.02540586637E-04  4.09421456174E-04  4.16419944573E-04  4.23538062365E-04
  4.30777854445E-04  4.38141400668E-04  4.45630816436E-04  4.53248253315E-04
  4.60995899646E-04  4.68875981178E-04  4.76890761706E-04  4.85042543723E-04
  4.93333669076E-04  5.01766519645E-04  5.10343518026E-04  5.19067128225E-04
  5.27939856365E-04  5.36964251409E-04  5.46142905892E-04  5.55478456664E-04
  5.64973585648E-04  5.74631020609E-04  5.84453535944E-04  5.94443953470E-04
  6.04605143240E-04  6.14940024369E-04  6.25451565867E-04  6.36142787496E-04
  6.47016760639E-04  6.58076609177E-04  6.69325510390E-04  6.80766695870E-04
  6.92403452449E-04  7.04239123141E-04  7.16277108106E-04  7.28520865623E-04
  7.40973913087E-04  7.53639828018E-04  7.66522249088E-04  7.79624877167E-04
  7.92951476387E-04  8.06505875222E-04  8.20291967589E-04  8.34313713964E-04
  8.48575142525E-04  8.63080350303E-04  8.77833504365E-04  8.92838843006E-04
  9.08100676969E-04  9.23623390684E-04  9.39411443526E-04  9.55469371098E-04
  9.71801786531E-04  9.88413381812E-04  1.00530892913E-03  1.02249328225E-03
  1.03997137791E-03  1.05774823721E-03  1.07582896712E-03  1.09421876187E-03
  1.11292290450E-03  1.13194676834E-03  1.15129581859E-03  1.17097561384E-03
  1.19099180773E-03  1.21135015052E-03  1.23205649077E-03  1.25311677700E-03
  1.27453705944E-03  1.29632349171E-03  1.31848233263E-03  1.34101994802E-03
  1.36394281248E-03  1.38725751132E-03  1.41097074240E-03  1.43508931808E-03
  1.45962016714E-03  1.48457033683E-03  1.50994699485E-03  1.53575743143E-03
  1.56200906139E-03  1.58870942633E-03  1.61586619675E-03  1.64348717426E-03
  1.67158029383E-03  1.70015362608E-03  1.72921537956E-03  1.75877390315E-03
  1.78883768846E-03  1.81941537222E-03  1.85051573880E-03  1.88214772275E-03
  1.91432041132E-03  1.94704304710E-03  1.98032503068E-03  2.01417592331E-03
  2.04860544970E-03  2.08362350080E-03  2.11924013662E-03  2.15546558911E-03
  2.19231026516E-03  2.22978474953E-03  2.26789980790E-03  2.30666639001E-03
  2.34609563273E-03  2.38619886333E-03  2.42698760268E-03  2.46847356862E-03
  2.51066867924E-03  2.55358505638E-03  2.59723502911E-03  2.64163113719E-03
  2.68678613479E-03  2.73271299404E-03  2.77942490887E-03  2.82693529868E-03
  2.87525781230E-03  2.92440633185E-03  2.97439497676E-03  3.02523810778E-03
  3.07695033117E-03  3.12954650284E-03  3.18304173267E-03  3.23745138880E-03
  3.29279110206E-03  3.34907677048E-03  3.40632456386E-03  3.46455092836E-03
  3.52377259131E-03  3.58400656593E-03  3.64527015629E-03  3.70758096222E-03
  3.77095688442E-03  3.83541612956E-03  3.90097721554E-03  3.96765897678E-03
  4.03548056967E-03  4.10446147804E-03  4.17462151876E-03  4.24598084747E-03
  4.31855996431E-03  4.39237971986E-03  4.46746132110E-03  4.54382633754E-03
  4.62149670735E-03  4.70049474374E-03  4.78084314131E-03  4.86256498260E-03
  4.94568374472E-03  5.03022330607E-03  5.11620795324E-03  5.20366238795E-03
  5.29261173417E-03  5.38308154533E-03  5.47509781164E-03  5.56868696761E-03
  5.66387589959E-03  5.76069195351E-03  5.85916294275E-03  5.95931715613E-03
  6.06118336601E-03  6.16479083659E-03  6.27016933227E-03  6.37734912627E-03
  6.48636100927E-03  6.59723629827E-03  6.71000684560E-03  6.82470504805E-03
  6.94136385619E-03  7.06001678385E-03  7.18069791772E-03  7.30344192714E-03
  7.42828407410E-03  7.55526022334E-03  7.68440685263E-03  7.81576106332E-03
  7.94936059091E-03  8.08524381598E-03  8.22344977513E-03  8.36401817228E-03
  8.50698939000E-03  8.65240450115E-03  8.80030528069E-03  8.95073421763E-03
  9.10373452732E-03  9.25935016377E-03  9.41762583234E-03  9.57860700258E-03
  9.74233992126E-03  9.90887162567E-03  1.00782499572E-02  1.02505235748E-02
  1.04257419696E-02  1.06039554782E-02  1.07852152981E-02  1.09695735016E-02
  1.11570830514E-02  1.13477978152E-02  1.15417725817E-02  1.17390630761E-02
  1.19397259762E-02  1.21438189285E-02  1.23514005650E-02  1.25625305199E-02
  1.27772694467E-02  1.29956790357E-02  1.32178220319E-02  1.34437622526E-02
  1.36735646060E-02  1.39072951099E-02  1.41450209106E-02  1.43868103021E-02
  1.46327327458E-02  1.48828588904E-02  1.51372605924E-02  1.53960109365E-02
  1.56591842566E-02  1.59268561573E-02  1.61991035355E-02  1.64760046028E-02
  1.67576389073E-02  1.70440873573E-02  1.73354322437E-02  1.76317572643E-02
  1.79331475476E-02  1.82396896772E-02  1.85514717167E-02  1.88685832350E-02
  1.91911153322E-02  1.95191606654E-02  1.98528134758E-02  2.01921696153E-02
  2.05373265744E-02  2.08883835100E-02  2.12454412740E-02  2.16086024421E-02
  2.19779713436E-02  2.23536540910E-02  2.27357586106E-02  2.31243946737E-02
  2.35196739280E-02  2.39217099294E-02  2.43306181752E-02  2.47465161367E-02
  2.51695232935E-02  2.55997611673E-02  2.60373533571E-02  2.64824255746E-02
  2.69351056806E-02  2.73955237212E-02  2.78638119656E-02  2.83401049441E-02
  2.88245394863E-02  2.93172547609E-02  2.98183923154E-02  3.03280961171E-02
  3.08465125939E-02  3.13737906769E-02  3.19100818429E-02  3.24555401578E-02
  3.30103223214E-02  3.35745877119E-02  3.41484984316E-02  3.47322193542E-02
  3.53259181713E-02  3.59297654411E-02  3.65439346373E-02  3.71686021987E-02
  3.78039475803E-02  3.84501533045E-02  3.91074050137E-02  3.97758915235E-02
  4.04558048774E-02  4.11473404011E-02  4.18506967594E-02  4.25660760131E-02
  4.32936836768E-02  4.40337287780E-02  4.47864239174E-02  4.55519853297E-02
  4.63306329460E-02  4.71225904565E-02  4.79280853754E-02  4.87473491058E-02