<PP_INFO>
Generated using Vanderbilt code, version   7  3  6                              
Author: unknown    Generation date:   23    6   10                              
Automatically converted from original format                                    
    1        The Pseudo was generated with a Scalar-Relativistic Calculation
  1.80000000000E+00    Local Potential cutoff radius
nl pn  l   occ               Rcut            Rcut US             E pseu
5S  5  0  2.00      1.00000000000      2.20000000000     -4.92488630239
5P  5  1  6.00      1.00000000000      2.40000000000     -2.61470835116
5D  5  2  2.00      1.00000000000      2.20000000000     -0.19767543173
6S  6  0  2.00      1.00000000000      2.20000000000     -0.37541892168
6P  6  1  0.00      1.00000000000      2.40000000000     -0.10262967795
</PP_INFO>


<PP_HEADER>
   0                   Version Number
  ha                   Element
   US                  Ultrasoft pseudopotential
    T                  Nonlinear Core Correction
SLA  PW   PBE  PBE     PBE  Exchange-Correlation functional
   12.00000000000      Z valence
 -126.57671839136      Total energy
  0.0000000  0.0000000 Suggested cutoff for wfc and rho
    2                  Max angular momentum component
  921                  Number of points in mesh
    5    6             Number of Wavefunctions, Number of Projectors
 Wavefunctions         nl  l   occ
                       5S  0  2.00
                       5P  1  6.00
                       5D  2  2.00
                       6S  0  2.00
                       6P  1  0.00
</PP_HEADER>


<PP_MESH>
  <PP_R>
  0.00000000000E+00  5.88483459444E-07  1.18702622233E-06  1.79580023842E-06
  2.41498039669E-06  3.04474457564E-06  3.68527369432E-06  4.33675176435E-06
  4.99936594277E-06  5.67330658582E-06  6.35876730361E-06  7.05594501573E-06
  7.76504000784E-06  8.48625598922E-06  9.21980015127E-06  9.96588322702E-06
  1.07247195517E-05  1.14965271243E-05  1.22815276703E-05  1.30799467050E-05
  1.38920135988E-05  1.47179616428E-05  1.55580281159E-05  1.64124543530E-05
  1.72814858142E-05  1.81653721554E-05  1.90643673000E-05  1.99787295119E-05
  2.09087214698E-05  2.18546103422E-05  2.28166678649E-05  2.37951704182E-05
  2.47903991071E-05  2.58026398415E-05  2.68321834185E-05  2.78793256061E-05
  2.89443672280E-05  3.00276142501E-05  3.11293778682E-05  3.22499745977E-05
  3.33897263644E-05  3.45489605969E-05  3.57280103207E-05  3.69272142541E-05
  3.81469169051E-05  3.93874686707E-05  4.06492259374E-05  4.19325511836E-05
  4.32378130839E-05  4.45653866147E-05  4.59156531623E-05  4.72890006321E-05
  4.86858235601E-05  5.01065232267E-05  5.15515077714E-05  5.30211923102E-05
  5.45159990551E-05  5.60363574351E-05  5.75827042198E-05  5.91554836447E-05
  6.07551475389E-05  6.23821554548E-05  6.40369748003E-05  6.57200809731E-05
  6.74319574970E-05  6.91730961609E-05  7.09439971603E-05  7.27451692408E-05
  7.45771298442E-05  7.64404052575E-05  7.83355307636E-05  8.02630507953E-05
  8.22235190919E-05  8.42174988579E-05  8.62455629253E-05  8.83082939174E-05
  9.04062844172E-05  9.25401371365E-05  9.47104650900E-05  9.69178917709E-05
  9.91630513303E-05  1.01446588759E-04  1.03769160073E-04  1.06131432502E-04
  1.08534084682E-04  1.10977806847E-04  1.13463301033E-04  1.15991281272E-04
  1.18562473806E-04  1.21177617288E-04  1.23837462998E-04  1.26542775058E-04
  1.29294330652E-04  1.32092920249E-04  1.34939347830E-04  1.37834431117E-04
  1.40779001813E-04  1.43773905835E-04  1.46820003562E-04  1.49918170078E-04
  1.53069295427E-04  1.56274284867E-04  1.59534059127E-04  1.62849554680E-04
  1.66221724001E-04  1.69651535851E-04  1.73139975548E-04  1.76688045253E-04
  1.80296764258E-04  1.83967169278E-04  1.87700314749E-04  1.91497273132E-04
  1.95359135219E-04  1.99287010449E-04  2.03282027225E-04  2.07345333237E-04
  2.11478095794E-04  2.15681502159E-04  2.19956759890E-04  2.24305097185E-04
  2.28727763238E-04  2.33226028594E-04  2.37801185519E-04  2.42454548366E-04
  2.47187453957E-04  2.52001261964E-04  2.56897355300E-04  2.61877140519E-04
  2.66942048216E-04  2.72093533442E-04  2.77333076118E-04  2.82662181464E-04
  2.88082380428E-04  2.93595230130E-04  2.99202314303E-04  3.04905243754E-04
  3.10705656826E-04  3.16605219864E-04  3.22605627698E-04  3.28708604130E-04
  3.34915902427E-04  3.41229305825E-04  3.47650628044E-04  3.54181713804E-04
  3.60824439360E-04  3.67580713039E-04  3.74452475787E-04  3.81441701729E-04
  3.88550398734E-04  3.95780608994E-04  4.03134409607E-04  4.10613913179E-04
  4.18221268426E-04  4.25958660794E-04  4.33828313086E-04  4.41832486101E-04
  4.49973479283E-04  4.58253631381E-04  4.66675321124E-04  4.75240967900E-04
  4.83953032453E-04  4.92814017591E-04  5.01826468903E-04  5.10992975493E-04
  5.20316170719E-04  5.29798732957E-04  5.39443386362E-04  5.49252901657E-04
  5.59230096925E-04  5.69377838422E-04  5.79699041398E-04  5.90196670935E-04
  6.00873742797E-04  6.11733324302E-04  6.22778535197E-04  6.34012548558E-04
  6.45438591698E-04  6.57059947100E-04  6.68879953353E-04  6.80902006117E-04
  6.93129559095E-04  7.05566125027E-04  7.18215276696E-04  7.31080647959E-04
  7.44165934789E-04  7.57474896336E-04  7.71011356006E-04  7.84779202563E-04
  7.98782391241E-04  8.13024944887E-04  8.27510955111E-04  8.42244583463E-04
  8.57230062628E-04  8.72471697647E-04  8.87973867144E-04  9.03741024594E-04
  9.19777699596E-04  9.36088499175E-04  9.52678109110E-04  9.69551295275E-04
  9.86712905008E-04  1.00416786851E-03  1.02192120025E-03  1.03997800042E-03
  1.05834345639E-03  1.07702284420E-03  1.09602153007E-03  1.11534497196E-03
  1.13499872113E-03  1.15498842371E-03  1.17531982235E-03  1.19599875788E-03
  1.21703117096E-03  1.23842310378E-03  1.26018070184E-03  1.28231021567E-03
  1.30481800265E-03  1.32771052885E-03  1.35099437083E-03  1.37467621759E-03
  1.39876287247E-03  1.42326125510E-03  1.44817840340E-03  1.47352147556E-03
  1.49929775218E-03  1.52551463827E-03  1.55217966545E-03  1.57930049404E-03
  1.60688491536E-03  1.63494085385E-03  1.66347636946E-03  1.69249965989E-03
  1.72201906296E-03  1.75204305903E-03  1.78258027340E-03  1.81363947884E-03
  1.84522959805E-03  1.87735970627E-03  1.91003903383E-03  1.94327696890E-03
  1.97708306008E-03  2.01146701921E-03  2.04643872413E-03  2.08200822154E-03
  2.11818572987E-03  2.15498164221E-03  2.19240652932E-03  2.23047114265E-03
  2.26918641742E-03  2.30856347577E-03  2.34861362999E-03  2.38934838570E-03
  2.43077944520E-03  2.47291871085E-03  2.51577828843E-03  2.55937049068E-03
  2.60370784078E-03  2.64880307601E-03  2.69466915135E-03  2.74131924323E-03
  2.78876675333E-03  2.83702531240E-03  2.88610878418E-03  2.93603126942E-03
  2.98680710986E-03  3.03845089244E-03  3.09097745340E-03  3.14440188261E-03
  3.19873952789E-03  3.25400599937E-03  3.31021717405E-03  3.36738920032E-03
  3.42553850259E-03  3.48468178602E-03  3.54483604134E-03  3.60601854971E-03
  3.66824688766E-03  3.73153893221E-03  3.79591286593E-03  3.86138718221E-03
  3.92798069054E-03  3.99571252196E-03  4.06460213452E-03  4.13466931885E-03
  4.20593420392E-03  4.27841726273E-03  4.35213931828E-03  4.42712154948E-03
  4.50338549728E-03  4.58095307083E-03  4.65984655379E-03  4.74008861074E-03
  4.82170229367E-03  4.90471104861E-03  4.98913872236E-03  5.07500956937E-03
  5.16234825867E-03  5.25117988097E-03  5.34152995587E-03  5.43342443922E-03
  5.52688973050E-03  5.62195268050E-03  5.71864059896E-03  5.81698126245E-03
  5.91700292233E-03  6.01873431290E-03  6.12220465961E-03  6.22744368749E-03
  6.33448162969E-03  6.44334923612E-03  6.55407778234E-03  6.66669907853E-03
  6.78124547860E-03  6.89774988952E-03  7.01624578075E-03  7.13676719386E-03
  7.25934875233E-03  7.38402567146E-03  7.51083376853E-03  7.63980947304E-03
  7.77098983722E-03  7.90441254665E-03  8.04011593109E-03  8.17813897550E-03
  8.31852133122E-03  8.46130332739E-03  8.60652598253E-03  8.75423101627E-03
  8.90446086143E-03  9.05725867613E-03  9.21266835623E-03  9.37073454791E-03
  9.53150266054E-03  9.69501887969E-03  9.86133018040E-03  1.00304843407E-02
  1.02025299553E-02  1.03775164495E-02  1.05554940937E-02  1.07365140173E-02
  1.09206282238E-02  1.11078896058E-02  1.12983519598E-02  1.14920700018E-02
  1.16890993835E-02  1.18894967074E-02  1.20933195440E-02  1.23006264474E-02
  1.25114769731E-02  1.27259316942E-02  1.29440522195E-02  1.31659012108E-02
  1.33915424009E-02  1.36210406123E-02  1.38544617753E-02  1.40918729474E-02
  1.43333423320E-02  1.45789392989E-02  1.48287344031E-02  1.50827994060E-02
  1.53412072955E-02  1.56040323073E-02  1.58713499458E-02  1.61432370064E-02
  1.64197715967E-02  1.67010331600E-02  1.69871024971E-02  1.72780617903E-02
  1.75739946266E-02  1.78749860217E-02  1.81811224446E-02  1.84924918424E-02
  1.88091836656E-02  1.91312888935E-02  1.94589000607E-02  1.97921112835E-02
  2.01310182873E-02  2.04757184332E-02  2.08263107471E-02  2.11828959473E-02
  2.15455764738E-02  2.19144565178E-02  2.22896420513E-02  2.26712408579E-02
  2.30593625636E-02  2.34541186681E-02  2.38556225773E-02  2.42639896355E-02
  2.46793371586E-02  2.51017844680E-02  2.55314529245E-02  2.59684659637E-02
  2.64129491309E-02  2.68650301175E-02  2.73248387976E-02  2.77925072654E-02
  2.82681698729E-02  2.87519632689E-02  2.92440264378E-02  2.97445007399E-02
  3.02535299517E-02  3.07712603074E-02  3.12978405410E-02  3.18334219288E-02
  3.23781583330E-02  3.29322062458E-02  3.34957248344E-02  3.40688759868E-02
  3.46518243583E-02  3.52447374186E-02  3.58477855002E-02  3.64611418471E-02
  3.70849826648E-02  3.77194871706E-02  3.83648376454E-02  3.90212194859E-02
  3.96888212579E-02  4.03678347506E-02  4.10584550312E-02  4.17608805017E-02
  4.24753129552E-02  4.32019576345E-02  4.39410232905E-02  4.46927222425E-02
  4.54572704389E-02  4.62348875197E-02  4.70257968793E-02  4.78302257306E-02
  4.86484051704E-02  4.94805702458E-02  5.03269600219E-02  5.11878176499E-02
  5.20633904377E-02  5.29539299203E-02  5.38596919326E-02  5.47809366823E-02
  5.57179288253E-02  5.66709375413E-02  5.76402366113E-02  5.86261044962E-02
  5.96288244166E-02  6.06486844347E-02  6.16859775364E-02  6.27410017161E-02
  6.38140600617E-02  6.49054608421E-02  6.60155175957E-02  6.71445492203E-02
  6.82928800649E-02  6.94608400226E-02  7.06487646257E-02  7.18569951421E-02
  7.30858786729E-02  7.43357682527E-02  7.56070229504E-02  7.69000079730E-02
  7.82150947701E-02  7.95526611406E-02  8.09130913414E-02  8.22967761980E-02
  8.37041132160E-02  8.51355066963E-02  8.65913678505E-02  8.80721149193E-02
  8.95781732926E-02  9.11099756320E-02  9.26679619946E-02  9.42525799597E-02
  9.58642847574E-02  9.75035393993E-02  9.91708148115E-02  1.00866589970E-01
  1.02591352038E-01  1.04345596507E-01  1.06129827337E-01  1.07944557102E-01
  1.09790307140E-01  1.11667607700E-01  1.13576998092E-01  1.15519026848E-01
  1.17494251875E-01  1.19503240618E-01  1.21546570220E-01  1.23624827689E-01
  1.25738610069E-01  1.27888524609E-01  1.30075188938E-01  1.32299231242E-01
  1.34561290445E-01  1.36862016393E-01  1.39202070040E-01  1.41582123638E-01
  1.44002860932E-01  1.46464977350E-01  1.48969180213E-01  1.51516188929E-01
  1.54106735204E-01  1.56741563252E-01  1.59421430009E-01  1.62147105348E-01
  1.64919372302E-01  1.67739027292E-01  1.70606880348E-01  1.73523755350E-01
  1.76490490259E-01  1.79507937360E-01  1.82576963509E-01  1.85698450377E-01
  1.88873294707E-01  1.92102408569E-01  1.95386719626E-01  1.98727171397E-01
  2.02124723529E-01  2.05580352074E-01  2.09095049765E-01  2.12669826308E-01
  2.16305708668E-01  2.20003741362E-01  2.23764986763E-01  2.27590525406E-01
  2.31481456293E-01  2.35438897213E-01  2.39463985063E-01  2.43557876172E-01
  2.47721746636E-01  2.51956792654E-01  2.56264230873E-01  2.60645298738E-01
  2.65101254843E-01  2.69633379299E-01  2.74242974098E-01  2.78931363486E-01
  2.83699894348E-01  2.88549936590E-01  2.93482883535E-01  2.98500152324E-01
  3.03603184321E-01  3.08793445527E-01  3.14072427006E-01  3.19441645305E-01
  3.24902642898E-01  3.30456988623E-01  3.36106278137E-01  3.41852134371E-01
  3.47696207998E-01  3.53640177907E-01  3.59685751687E-01  3.65834666113E-01
  3.72088687650E-01  3.78449612957E-01  3.84919269405E-01  3.91499515600E-01
  3.98192241921E-01  4.04999371057E-01  4.11922858566E-01  4.18964693432E-01
  4.26126898637E-01  4.33411531744E-01  4.40820685488E-01  4.48356488374E-01
  4.56021105294E-01  4.63816738143E-01  4.71745626456E-01  4.79810048049E-01
  4.88012319675E-01  4.96354797686E-01  5.04839878717E-01  5.13470000366E-01
  5.22247641900E-01  5.31175324965E-01  5.40255614314E-01  5.49491118536E-01
  5.58884490813E-01  5.68438429681E-01  5.78155679799E-01  5.88039032747E-01
  5.98091327820E-01  6.08315452848E-01  6.18714345025E-01  6.29290991750E-01
  6.40048431490E-01  6.50989754650E-01  6.62118104459E-01  6.73436677877E-01
  6.84948726512E-01  6.96657557551E-01  7.08566534716E-01  7.20679079225E-01
  7.32998670779E-01  7.45528848556E-01  7.58273212236E-01  7.71235423026E-01
  7.84419204719E-01  7.97828344761E-01  8.11466695339E-01  8.25338174485E-01
  8.39446767208E-01  8.53796526634E-01  8.68391575170E-01  8.83236105692E-01
  8.98334382746E-01  9.13690743775E-01  9.29309600364E-01  9.45195439508E-01
  9.61352824903E-01  9.77786398251E-01  9.94500880600E-01  1.01150107370E+00
  1.02879186137E+00  1.04637821093E+00  1.06426517459E+00  1.08245789093E+00
  1.10096158637E+00  1.11978157665E+00  1.13892326841E+00  1.15839216067E+00
  1.17819384647E+00  1.19833401445E+00  1.21881845050E+00  1.23965303940E+00
  1.26084376651E+00  1.28239671953E+00  1.30431809021E+00  1.32661417612E+00
  1.34929138250E+00  1.37235622408E+00  1.39581532694E+00  1.41967543042E+00
  1.44394338906E+00  1.46862617460E+00  1.49373087790E+00  1.51926471107E+00
  1.54523500948E+00  1.57164923390E+00  1.59851497262E+00  1.62583994365E+00
  1.65363199693E+00  1.68189911657E+00  1.71064942317E+00  1.73989117614E+00
  1.76963277606E+00  1.79988276713E+00  1.83064983957E+00  1.86194283219E+00
  1.89377073483E+00  1.92614269106E+00  1.95906800069E+00  1.99255612255E+00
  2.02661667711E+00  2.06125944931E+00  2.09649439136E+00  2.13233162557E+00
  2.16878144728E+00  2.20585432782E+00  2.24356091752E+00  2.28191204874E+00
  2.32091873903E+00  2.36059219425E+00  2.40094381182E+00  2.44198518398E+00
  2.48372810112E+00  2.52618455516E+00  2.56936674304E+00  2.61328707015E+00
  2.65795815396E+00  2.70339282761E+00  2.74960414359E+00  2.79660537752E+00
  2.84441003195E+00  2.89303184023E+00  2.94248477047E+00  2.99278302953E+00
  3.04394106714E+00  3.09597358000E+00  3.14889551605E+00  3.20272207874E+00
  3.25746873140E+00  3.31315120168E+00  3.36978548607E+00  3.42738785452E+00
  3.48597485507E+00  3.54556331863E+00  3.60617036381E+00  3.66781340184E+00
  3.73051014158E+00  3.79427859458E+00  3.85913708029E+00  3.92510423130E+00
  3.99219899869E+00  4.06044065749E+00  4.12984881220E+00  4.20044340246E+00
  4.27224470871E+00  4.34527335809E+00  4.41955033030E+00  4.49509696370E+00
  4.57193496136E+00  4.65008639735E+00  4.72957372308E+00  4.81041977370E+00
  4.89264777473E+00  4.97628134867E+00  5.06134452185E+00  5.14786173125E+00
  5.23585783160E+00  5.32535810248E+00  5.41638825559E+00  5.50897444211E+00
  5.60314326029E+00  5.69892176298E+00  5.79633746551E+00  5.89541835352E+00
  5.99619289103E+00  6.09869002862E+00  6.20293921173E+00  6.30897038913E+00
  6.41681402153E+00  6.52650109032E+00  6.63806310647E+00  6.75153211958E+00
  6.86694072712E+00  6.98432208374E+00  7.10370991083E+00  7.22513850621E+00
  7.34864275395E+00  7.47425813445E+00  7.60202073456E+00  7.73196725802E+00
  7.86413503594E+00  7.99856203757E+00  8.13528688119E+00  8.27434884519E+00
  8.41578787938E+00  8.55964461648E+00  8.70596038372E+00  8.85477721481E+00
  9.00613786194E+00  9.16008580808E+00  9.31666527951E+00  9.47592125849E+00
  9.63789949616E+00  9.80264652575E+00  9.97020967588E+00  1.01406370842E+01
  1.03139777112E+01  1.04902813544E+01  1.06695986622E+01  1.08519811492E+01
  1.10374812103E+01  1.12261521360E+01  1.14180481279E+01  1.16132243139E+01
  1.18117367645E+01  1.20136425083E+01  1.22189995491E+01  1.24278668818E+01
  1.26403045102E+01  1.28563734633E+01  1.30761358136E+01  1.32996546946E+01
  1.35269943189E+01  1.37582199968E+01  1.39933981550E+01  1.42325963555E+01
  1.44758833155E+01  1.47233289265E+01  1.49750042749E+01  1.52309816622E+01
  1.54913346256E+01  1.57561379596E+01  1.60254677370E+01  1.62994013311E+01
  1.65780174377E+01  1.68613960978E+01  1.71496187205E+01  1.74427681068E+01
  1.77409284727E+01  1.80441854740E+01  1.83526262304E+01  1.86663393511E+01
  1.89854149598E+01  1.93099447207E+01  1.96400218650E+01  1.99757412174E+01
  2.03171992236E+01  2.06644939778E+01  2.10177252512E+01  2.13769945202E+01
  2.17424049960E+01  2.21140616539E+01  2.24920712637E+01  2.28765424202E+01
  2.32675855745E+01  2.36653130658E+01  2.40698391536E+01  2.44812800502E+01
  2.48997539547E+01  2.53253810866E+01  2.57582837203E+01  2.61985862204E+01
  2.66464150772E+01  2.71018989434E+01  2.75651686705E+01  2.80363573471E+01
  2.85156003365E+01  2.90030353160E+01  2.94988023161E+01  3.00030437613E+01
  3.05159045102E+01  3.10375318979E+01  3.15680757778E+01  3.21076885648E+01
  3.26565252794E+01  3.32147435917E+01  3.37825038669E+01  3.43599692117E+01
  3.49473055206E+01  3.55446815240E+01  3.61522688365E+01  3.67702420062E+01
  3.73987785647E+01  3.80380590785E+01  3.86882672005E+01  3.93495897229E+01
  4.00222166309E+01  4.07063411571E+01  4.14021598374E+01  4.21098725668E+01
  4.28296826577E+01  4.35617968976E+01  4.43064256086E+01  4.50637827082E+01
  4.58340857705E+01  4.66175560885E+01  4.74144187382E+01  4.82249026428E+01
  4.90492406387E+01  4.98876695421E+01  5.07404302175E+01  5.16077676465E+01
  5.24899309984E+01  5.33871737017E+01  5.42997535167E+01  5.52279326101E+01
  5.61719776297E+01  5.71321597814E+01  5.81087549069E+01  5.91020435632E+01
  6.01123111027E+01  6.11398477560E+01  6.21849487142E+01  6.32479142148E+01
  6.43290496272E+01  6.54286655405E+01  6.65470778533E+01  6.76846078637E+01
  6.88415823620E+01  7.00183337248E+01  7.12152000097E+01  7.24325250535E+01
  7.36706585699E+01  7.49299562509E+01  7.62107798682E+01  7.75134973778E+01
  7.88384830250E+01  8.01861174528E+01  8.15567878103E+01  8.29508878646E+01
  8.43688181138E+01  8.58109859016E+01  8.72778055351E+01  8.87696984032E+01
  9.02870930976E+01  9.18304255367E+01  9.34001390900E+01  9.49966847057E+01
  9.66205210406E+01  9.82721145913E+01  9.99519398289E+01  1.01660479334E+02
  1.03398223938E+02  1.05165672861E+02  1.06963333857E+02  1.08791723358E+02
  1.10651366626E+02  1.12542797900E+02  1.14466560553E+02  1.16423207243E+02
  1.18413300077E+02  1.20437410771E+02  1.22496120813E+02  1.24590021629E+02
  1.26719714758E+02  1.28885812019E+02  1.31088935689E+02  1.33329718683E+02
  1.35608804736E+02  1.37926848584E+02  1.40284516156E+02  1.42682484766E+02
  1.45121443301E+02  1.47602092430E+02  1.50125144793E+02  1.52691325215E+02
  1.55301370910E+02  1.57956031693E+02  1.60656070198E+02  1.63402262093E+02
  1.66195396305E+02  1.69036275249E+02  1.71925715054E+02  1.74864545799E+02
  1.77853611755E+02  1.80893771621E+02  1.83985898778E+02  1.87130881533E+02
  1.90329623378E+02  1.93583043252E+02  1.96892075798E+02  2.00257671637E+02
  2.03680797640E+02
  </PP_R>
  <PP_RAB>
  5.83510399404E-07  5.93484695326E-07  6.03629487918E-07  6.13947691580E-07
  6.24442270534E-07  6.35116239669E-07  6.45972665409E-07  6.57014666596E-07
  6.68245415383E-07  6.79668138146E-07  6.91286116414E-07  7.03102687806E-07
  7.15121246994E-07  7.27345246679E-07  7.39778198578E-07  7.52423674438E-07
  7.65285307060E-07  7.78366791341E-07  7.91671885340E-07  8.05204411352E-07
  8.18968257010E-07  8.32967376400E-07  8.47205791199E-07  8.61687591828E-07
  8.76416938627E-07  8.91398063054E-07  9.06635268894E-07  9.22132933504E-07
  9.37895509061E-07  9.53927523848E-07  9.70233583554E-07  9.86818372594E-07
  1.00368665546E-06  1.02084327807E-06  1.03829316921E-06  1.05604134188E-06
  1.07409289479E-06  1.09245301381E-06  1.11112697344E-06  1.13012013835E-06
  1.14943796490E-06  1.16908600274E-06  1.18906989637E-06  1.20939538676E-06
  1.23006831305E-06  1.25109461416E-06  1.27248033055E-06  1.29423160591E-06
  1.31635468896E-06  1.33885593525E-06  1.36174180893E-06  1.38501888469E-06
  1.40869384958E-06  1.43277350494E-06  1.45726476841E-06  1.48217467585E-06
  1.50751038339E-06  1.53327916949E-06  1.55948843703E-06  1.58614571542E-06
  1.61325866277E-06  1.64083506813E-06  1.66888285365E-06  1.69741007691E-06
  1.72642493325E-06  1.75593575806E-06  1.78595102924E-06  1.81647936959E-06
  1.84752954931E-06  1.87911048851E-06  1.91123125980E-06  1.94390109085E-06
  1.97712936706E-06  2.01092563428E-06  2.04529960153E-06  2.08026114377E-06
  2.11582030478E-06  2.15198730002E-06  2.18877251957E-06  2.22618653111E-06
  2.26424008297E-06  2.30294410718E-06  2.34230972267E-06  2.38234823842E-06
  2.42307115672E-06  2.46449017648E-06  2.50661719657E-06  2.54946431927E-06
  2.59304385374E-06  2.63736831954E-06  2.68245045021E-06  2.72830319699E-06
  2.77493973249E-06  2.82237345447E-06  2.87061798973E-06  2.91968719800E-06
  2.96959517589E-06  3.02035626101E-06  3.07198503605E-06  3.12449633293E-06
  3.17790523716E-06  3.23222709206E-06  3.28747750326E-06  3.34367234313E-06
  3.40082775536E-06  3.45896015959E-06  3.51808625615E-06  3.57822303081E-06
  3.63938775971E-06  3.70159801428E-06  3.76487166633E-06  3.82922689316E-06
  3.89468218278E-06  3.96125633922E-06  4.02896848796E-06  4.09783808138E-06
  4.16788490438E-06  4.23912908006E-06  4.31159107550E-06  4.38529170762E-06
  4.46025214919E-06  4.53649393489E-06  4.61403896752E-06  4.69290952425E-06
  4.77312826308E-06  4.85471822930E-06  4.93770286212E-06  5.02210600142E-06
  5.10795189459E-06  5.19526520351E-06  5.28407101158E-06  5.37439483100E-06
  5.46626261006E-06  5.55970074058E-06  5.65473606555E-06  5.75139588677E-06
  5.84970797272E-06  5.94970056659E-06  6.05140239429E-06  6.15484267280E-06
  6.26005111851E-06  6.36705795577E-06  6.47589392557E-06  6.58659029438E-06
  6.69917886313E-06  6.81369197633E-06  6.93016253138E-06  7.04862398803E-06
  7.16911037795E-06  7.29165631455E-06  7.41629700292E-06  7.54306824990E-06
  7.67200647442E-06  7.80314871794E-06  7.93653265510E-06  8.07219660450E-06
  8.21017953979E-06  8.35052110078E-06  8.49326160490E-06  8.63844205873E-06
  8.78610416979E-06  8.93629035857E-06  9.08904377064E-06  9.24440828911E-06
  9.40242854719E-06  9.56314994105E-06  9.72661864283E-06  9.89288161392E-06
  1.00619866185E-05  1.02339822371E-05  1.04089178807E-05  1.05868438051E-05
  1.07678111248E-05  1.09518718283E-05  1.11390787926E-05  1.13294857987E-05
  1.15231475468E-05  1.17201196723E-05  1.19204587613E-05  1.21242223675E-05
  1.23314690281E-05  1.25422582812E-05  1.27566506824E-05  1.29747078224E-05
  1.31964923450E-05  1.34220679644E-05  1.36514994843E-05  1.38848528157E-05
  1.41221949967E-05  1.43635942111E-05  1.46091198081E-05  1.48588423225E-05
  1.51128334948E-05  1.53711662917E-05  1.56339149273E-05  1.59011548840E-05
  1.61729629349E-05  1.64494171651E-05  1.67305969945E-05  1.70165832007E-05
  1.73074579419E-05  1.76033047809E-05  1.79042087087E-05  1.82102561692E-05
  1.85215350840E-05  1.88381348773E-05  1.91601465023E-05  1.94876624666E-05
  1.98207768592E-05  2.01595853775E-05  2.05041853545E-05  2.08546757872E-05
  2.12111573647E-05  2.15737324973E-05  2.19425053458E-05  2.23175818514E-05
  2.26990697664E-05  2.30870786850E-05  2.34817200744E-05  2.38831073077E-05
  2.42913556955E-05  2.47065825198E-05  2.51289070671E-05  2.55584506632E-05
  2.59953367076E-05  2.64396907091E-05  2.68916403222E-05  2.73513153832E-05
  2.78188479478E-05  2.82943723291E-05  2.87780251361E-05  2.92699453128E-05
  2.97702741784E-05  3.02791554676E-05  3.07967353724E-05  3.13231625832E-05
  3.18585883325E-05  3.24031664378E-05  3.29570533458E-05  3.35204081774E-05
  3.40933927736E-05  3.46761717419E-05  3.52689125033E-05  3.58717853408E-05
  3.64849634480E-05  3.71086229793E-05  3.77429430998E-05  3.83881060375E-05
  3.90442971353E-05  3.97117049040E-05  4.03905210772E-05  4.10809406654E-05
  4.17831620130E-05  4.24973868545E-05  4.32238203728E-05  4.39626712583E-05
  4.47141517686E-05  4.54784777894E-05  4.62558688968E-05  4.70465484203E-05
  4.78507435068E-05  4.86686851859E-05  4.95006084364E-05  5.03467522539E-05
  5.12073597191E-05  5.20826780678E-05  5.29729587621E-05  5.38784575624E-05
  5.47994346009E-05  5.57361544565E-05  5.66888862308E-05  5.76579036252E-05
  5.86434850195E-05  5.96459135523E-05  6.06654772018E-05  6.17024688690E-05
  6.27571864615E-05  6.38299329793E-05  6.49210166017E-05  6.60307507758E-05
  6.71594543069E-05  6.83074514496E-05  6.94750720014E-05  7.06626513969E-05
  7.18705308047E-05  7.30990572254E-05  7.43485835906E-05  7.56194688652E-05
  7.69120781499E-05  7.82267827863E-05  7.95639604637E-05  8.09239953273E-05
  8.23072780888E-05  8.37142061385E-05  8.51451836598E-05  8.66006217447E-05
  8.80809385124E-05  8.95865592293E-05  9.11179164311E-05  9.26754500471E-05
  9.42596075266E-05  9.58708439672E-05  9.75096222462E-05  9.91764131528E-05
  1.00871695524E-04  1.02595956381E-04  1.04349691071E-04  1.06133403408E-04
  1.07947605818E-04  1.09792819486E-04  1.11669574507E-04  1.13578410036E-04
  1.15519874443E-04  1.17494525476E-04  1.19502930412E-04  1.21545666228E-04
  1.23623319761E-04  1.25736487882E-04  1.27885777663E-04  1.30071806553E-04
  1.32295202556E-04  1.34556604410E-04  1.36856661774E-04  1.39196035408E-04
  1.41575397369E-04  1.43995431203E-04  1.46456832137E-04  1.48960307285E-04
  1.51506575847E-04  1.54096369317E-04  1.56730431691E-04  1.59409519686E-04
  1.62134402951E-04  1.64905864292E-04  1.67724699898E-04  1.70591719564E-04
  1.73507746929E-04  1.76473619713E-04  1.79490189953E-04  1.82558324252E-04
  1.85678904024E-04  1.88852825752E-04  1.92081001243E-04  1.95364357888E-04
  1.98703838933E-04  2.02100403746E-04  2.05555028094E-04  2.09068704424E-04
  2.12642442147E-04  2.16277267929E-04  2.19974225984E-04  2.23734378379E-04
  2.27558805330E-04  2.31448605523E-04  2.35404896422E-04  2.39428814592E-04
  2.43521516027E-04  2.47684176482E-04  2.51917991807E-04  2.56224178297E-04
  2.60603973035E-04  2.65058634252E-04  2.69589441685E-04  2.74197696948E-04
  2.78884723903E-04  2.83651869043E-04  2.88500501876E-04  2.93432015320E-04
  2.98447826104E-04  3.03549375174E-04  3.08738128105E-04  3.14015575526E-04
  3.19383233545E-04  3.24842644187E-04  3.30395375834E-04  3.36043023680E-04
  3.41787210184E-04  3.47629585539E-04  3.53571828147E-04  3.59615645099E-04
  3.65762772668E-04  3.72014976803E-04  3.78374053643E-04  3.84841830026E-04
  3.91420164019E-04  3.98110945452E-04  4.04916096456E-04  4.11837572018E-04
  4.18877360546E-04  4.26037484433E-04  4.33320000646E-04  4.40727001310E-04
  4.48260614312E-04  4.55923003916E-04  4.63716371375E-04  4.71642955575E-04
  4.79705033669E-04  4.87904921737E-04  4.96244975447E-04  5.04727590736E-04
  5.13355204495E-04  5.22130295271E-04  5.31055383976E-04  5.40133034617E-04
  5.49365855027E-04  5.58756497616E-04  5.68307660135E-04  5.78022086447E-04
  5.87902567319E-04  5.97951941223E-04  6.08173095148E-04  6.18568965435E-04
  6.29142538616E-04  6.39896852274E-04  6.50834995915E-04  6.61960111856E-04
  6.73275396127E-04  6.84784099392E-04  6.96489527877E-04  7.08395044326E-04
  7.20504068963E-04  7.32820080477E-04  7.45346617019E-04  7.58087277221E-04
  7.71045721228E-04  7.84225671750E-04  7.97630915133E-04  8.11265302443E-04
  8.25132750575E-04  8.39237243380E-04  8.53582832804E-04  8.68173640059E-04
  8.83013856801E-04  8.98107746337E-04  9.13459644850E-04  9.29073962642E-04
  9.44955185405E-04  9.61107875507E-04  9.77536673304E-04  9.94246298470E-04
  1.01124155136E-03  1.02852731438E-03  1.04610855339E-03  1.06399031915E-03
  1.08217774873E-03  1.10067606705E-03  1.11949058829E-03  1.13862671752E-03
  1.15808995218E-03  1.17788588366E-03  1.19802019897E-03  1.21849868230E-03
  1.23932721672E-03  1.26051178587E-03  1.28205847566E-03  1.30397347604E-03
  1.32626308277E-03  1.34893369922E-03  1.37199183822E-03  1.39544412392E-03
  1.41929729372E-03  1.44355820017E-03  1.46823381295E-03  1.49333122090E-03
  1.51885763400E-03  1.54482038552E-03  1.57122693404E-03  1.59808486565E-03
  1.62540189612E-03  1.65318587310E-03  1.68144477839E-03  1.71018673023E-03
  1.73941998562E-03  1.76915294272E-03  1.79939414322E-03  1.83015227484E-03
  1.86143617379E-03  1.89325482734E-03  1.92561737636E-03  1.95853311799E-03
  1.99201150829E-03  2.02606216495E-03  2.06069487006E-03  2.09591957292E-03
  2.13174639293E-03  2.16818562242E-03  2.20524772969E-03  2.24294336195E-03
  2.28128334845E-03  2.32027870350E-03  2.35994062972E-03  2.40028052122E-03
  2.44130996687E-03  2.48304075363E-03  2.52548486994E-03  2.56865450919E-03
  2.61256207318E-03  2.65722017569E-03  2.70264164614E-03  2.74883953324E-03
  2.79582710874E-03  2.84361787127E-03  2.89222555019E-03  2.94166410954E-03
  2.99194775207E-03  3.04309092329E-03  3.09510831564E-03  3.14801487272E-03
  3.20182579356E-03  3.25655653699E-03  3.31222282610E-03  3.36884065272E-03
  3.42642628208E-03  3.48499625741E-03  3.54456740472E-03  3.60515683766E-03
  3.66678196239E-03  3.72946048263E-03  3.79321040469E-03  3.85805004271E-03
  3.92399802384E-03  3.99107329367E-03  4.05929512163E-03  4.12868310653E-03
  4.19925718219E-03  4.27103762318E-03  4.34404505063E-03  4.41830043816E-03
  4.49382511791E-03  4.57064078666E-03  4.64876951206E-03  4.72823373898E-03
  4.80905629596E-03  4.89126040176E-03  4.97486967201E-03  5.05990812606E-03
  5.14640019380E-03  5.23437072273E-03  5.32384498507E-03  5.41484868506E-03
  5.50740796630E-03  5.60154941927E-03  5.69730008899E-03  5.79468748279E-03
  5.89373957816E-03  5.99448483087E-03  6.09695218306E-03  6.20117107164E-03
  6.30717143668E-03  6.41498373001E-03  6.52463892404E-03  6.63616852057E-03