<PP_INFO>
Generated using "atomic" code by A. Dal Corso  (espresso distribution)     
Author: anonymous   Generation date:  6May2011                             
Hf                                                                         
    2        The Pseudo was generated with a Fully-Relativistic Calculation
   -1 2.5000000E+00    L component and cutoff radius for Local Potential
nl pn  l   occ               Rcut            Rcut US             E pseu
5S  1  0  2.00      2.20000000000      2.20000000000     -4.89385477075
5P  2  1  2.00      2.40000000000      2.40000000000     -3.00479088812
5P  2  1  4.00      2.40000000000      2.40000000000     -2.43494553602
4F  4  3  6.00      2.20000000000      2.20000000000     -1.28340134206
4F  4  3  8.00      2.20000000000      2.20000000000     -1.15523396675
5D  3  2  2.00      2.20000000000      2.20000000000     -0.20716852885
5D  3  2  0.00      2.20000000000      2.20000000000     -0.17489137200
</PP_INFO>


<PP_HEADER>
   0                   Version Number
  Hf                   Element
   US                  Ultrasoft pseudopotential
    T                  Nonlinear Core Correction
 SLA  PW   PBX  PBC    PBE  Exchange-Correlation functional
   24.00000000000      Z valence
 -441.26580529590      Total energy
  0.0000000  0.0000000 Suggested cutoff for wfc and rho
    3                  Max angular momentum component
 1271                  Number of points in mesh
    7    7             Number of Wavefunctions, Number of Projectors
 Wavefunctions         nl  l   occ
                       5S  0  2.00
                       5P  1  2.00
                       5P  1  4.00
                       4F  3  6.00
                       4F  3  8.00
                       5D  2  2.00
                       5D  2  0.00
</PP_HEADER>


<PP_MESH>
  <PP_R>
  1.26650272994E-05  1.28243337315E-05  1.29856439919E-05  1.31489832856E-05
  1.33143771346E-05  1.34818513822E-05  1.36514321965E-05  1.38231460749E-05
  1.39970198479E-05  1.41730806838E-05  1.43513560923E-05  1.45318739295E-05
  1.47146624015E-05  1.48997500694E-05  1.50871658537E-05  1.52769390382E-05
  1.54690992756E-05  1.56636765912E-05  1.58607013882E-05  1.60602044520E-05
  1.62622169554E-05  1.64667704634E-05  1.66738969377E-05  1.68836287423E-05
  1.70959986482E-05  1.73110398388E-05  1.75287859145E-05  1.77492708987E-05
  1.79725292426E-05  1.81985958307E-05  1.84275059865E-05  1.86592954776E-05
  1.88940005215E-05  1.91316577915E-05  1.93723044219E-05  1.96159780143E-05
  1.98627166432E-05  2.01125588619E-05  2.03655437089E-05  2.06217107136E-05
  2.08810999025E-05  2.11437518057E-05  2.14097074632E-05  2.16790084310E-05
  2.19516967880E-05  2.22278151423E-05  2.25074066379E-05  2.27905149616E-05
  2.30771843496E-05  2.33674595947E-05  2.36613860528E-05  2.39590096507E-05
  2.42603768925E-05  2.45655348676E-05  2.48745312575E-05  2.51874143435E-05
  2.55042330143E-05  2.58250367733E-05  2.61498757469E-05  2.64788006918E-05
  2.68118630032E-05  2.71491147227E-05  2.74906085466E-05  2.78363978340E-05
  2.81865366152E-05  2.85410796001E-05  2.89000821868E-05  2.92636004701E-05
  2.96316912505E-05  3.00044120430E-05  3.03818210859E-05  3.07639773501E-05
  3.11509405484E-05  3.15427711445E-05  3.19395303628E-05  3.23412801977E-05
  3.27480834235E-05  3.31600036039E-05  3.35771051023E-05  3.39994530917E-05
  3.44271135648E-05  3.48601533445E-05  3.52986400940E-05  3.57426423279E-05
  3.61922294223E-05  3.66474716263E-05  3.71084400722E-05  3.75752067874E-05
  3.80478447051E-05  3.85264276760E-05  3.90110304795E-05  3.95017288360E-05
  3.99985994179E-05  4.05017198624E-05  4.10111687830E-05  4.15270257821E-05
  4.20493714636E-05  4.25782874448E-05  4.31138563701E-05  4.36561619232E-05
  4.42052888404E-05  4.47613229239E-05  4.53243510552E-05  4.58944612086E-05
  4.64717424649E-05  4.70562850255E-05  4.76481802264E-05  4.82475205523E-05
  4.88543996516E-05  4.94689123501E-05  5.00911546669E-05  5.07212238285E-05
  5.13592182845E-05  5.20052377228E-05  5.26593830854E-05  5.33217565837E-05
  5.39924617149E-05  5.46716032782E-05  5.53592873907E-05  5.60556215044E-05
  5.67607144231E-05  5.74746763189E-05  5.81976187498E-05  5.89296546770E-05
  5.96708984827E-05  6.04214659876E-05  6.11814744696E-05  6.19510426814E-05
  6.27302908696E-05  6.35193407935E-05  6.43183157435E-05  6.51273405613E-05
  6.59465416585E-05  6.67760470370E-05  6.76159863087E-05  6.84664907159E-05
  6.93276931515E-05  7.01997281803E-05  7.10827320593E-05  7.19768427599E-05
  7.28821999886E-05  7.37989452094E-05  7.47272216654E-05  7.56671744019E-05
  7.66189502883E-05  7.75826980416E-05  7.85585682493E-05  7.95467133932E-05
  8.05472878728E-05  8.15604480300E-05  8.25863521732E-05  8.36251606020E-05
  8.46770356322E-05  8.57421416215E-05  8.68206449948E-05  8.79127142706E-05
  8.90185200869E-05  9.01382352280E-05  9.12720346518E-05  9.24200955167E-05
  9.35825972095E-05  9.47597213736E-05  9.59516519369E-05  9.71585751410E-05
  9.83806795702E-05  9.96181561807E-05  1.00871198331E-04  1.02140001811E-04
  1.03424764874E-04  1.04725688267E-04  1.06042975262E-04  1.07376831688E-04
  1.08727465961E-04  1.10095089123E-04  1.11479914867E-04  1.12882159574E-04
  1.14302042348E-04  1.15739785048E-04  1.17195612326E-04  1.18669751656E-04
  1.20162433377E-04  1.21673890722E-04  1.23204359860E-04  1.24754079930E-04
  1.26323293079E-04  1.27912244500E-04  1.29521182468E-04  1.31150358386E-04
  1.32800026813E-04  1.34470445515E-04  1.36161875498E-04  1.37874581050E-04
  1.39608829787E-04  1.41364892687E-04  1.43143044139E-04  1.44943561983E-04
  1.46766727554E-04  1.48612825724E-04  1.50482144951E-04  1.52374977318E-04
  1.54291618587E-04  1.56232368234E-04  1.58197529507E-04  1.60187409466E-04
  1.62202319033E-04  1.64242573043E-04  1.66308490289E-04  1.68400393575E-04
  1.70518609765E-04  1.72663469835E-04  1.74835308923E-04  1.77034466384E-04
  1.79261285840E-04  1.81516115237E-04  1.83799306896E-04  1.86111217571E-04
  1.88452208503E-04  1.90822645475E-04  1.93222898874E-04  1.95653343744E-04
  1.98114359847E-04  2.00606331722E-04  2.03129648744E-04  2.05684705188E-04
  2.08271900284E-04  2.10891638289E-04  2.13544328542E-04  2.16230385530E-04
  2.18950228956E-04  2.21704283801E-04  2.24492980391E-04  2.27316754466E-04
  2.30176047247E-04  2.33071305503E-04  2.36002981625E-04  2.38971533692E-04
  2.41977425549E-04  2.45021126870E-04  2.48103113240E-04  2.51223866227E-04
  2.54383873455E-04  2.57583628680E-04  2.60823631871E-04  2.64104389285E-04
  2.67426413547E-04  2.70790223731E-04  2.74196345437E-04  2.77645310881E-04
  2.81137658970E-04  2.84673935389E-04  2.88254692690E-04  2.91880490374E-04
  2.95551894977E-04  2.99269480166E-04  3.03033826820E-04  3.06845523126E-04
  3.10705164669E-04  3.14613354526E-04  3.18570703360E-04  3.22577829515E-04
  3.26635359111E-04  3.30743926147E-04  3.34904172595E-04  3.39116748500E-04
  3.43382312088E-04  3.47701529861E-04  3.52075076705E-04  3.56503635996E-04
  3.60987899705E-04  3.65528568508E-04  3.70126351894E-04  3.74781968275E-04
  3.79496145101E-04  3.84269618972E-04  3.89103135753E-04  3.93997450690E-04
  3.98953328531E-04  4.03971543641E-04  4.09052880126E-04  4.14198131957E-04
  4.19408103088E-04  4.24683607588E-04  4.30025469766E-04  4.35434524299E-04
  4.40911616362E-04  4.46457601762E-04  4.52073347071E-04  4.57759729760E-04
  4.63517638338E-04  4.69347972490E-04  4.75251643218E-04  4.81229572981E-04
  4.87282695845E-04  4.93411957621E-04  4.99618316020E-04  5.05902740797E-04
  5.12266213906E-04  5.18709729654E-04  5.25234294852E-04  5.31840928977E-04
  5.38530664329E-04  5.45304546194E-04  5.52163633003E-04  5.59108996503E-04
  5.66141721922E-04  5.73262908136E-04  5.80473667846E-04  5.87775127748E-04
  5.95168428709E-04  6.02654725948E-04  6.10235189214E-04  6.17911002970E-04
  6.25683366577E-04  6.33553494483E-04  6.41522616412E-04  6.49591977555E-04
  6.57762838766E-04  6.66036476758E-04  6.74414184306E-04  6.82897270441E-04
  6.91487060665E-04  7.00184897148E-04  7.08992138947E-04  7.17910162209E-04
  7.26940360395E-04  7.36084144491E-04  7.45342943232E-04  7.54718203325E-04
  7.64211389672E-04  7.73823985604E-04  7.83557493108E-04  7.93413433064E-04
  8.03393345484E-04  8.13498789748E-04  8.23731344853E-04  8.34092609657E-04
  8.44584203128E-04  8.55207764599E-04  8.65964954023E-04  8.76857452233E-04
  8.87886961204E-04  8.99055204319E-04  9.10363926639E-04  9.21814895175E-04
  9.33409899163E-04  9.45150750347E-04  9.57039283259E-04  9.69077355506E-04
  9.81266848062E-04  9.93609665558E-04  1.00610773659E-03  1.01876301400E-03
  1.03157747520E-03  1.04455312248E-03  1.05769198331E-03  1.07099611067E-03
  1.08446758335E-03  1.09810850629E-03  1.11192101093E-03  1.12590725548E-03
  1.14006942533E-03  1.15440973335E-03  1.16893042024E-03  1.18363375489E-03
  1.19852203471E-03  1.21359758605E-03  1.22886276447E-03  1.24431995521E-03
  1.25997157346E-03  1.27582006484E-03  1.29186790570E-03  1.30811760355E-03
  1.32457169744E-03  1.34123275835E-03  1.35810338960E-03  1.37518622728E-03
  1.39248394059E-03  1.40999923236E-03  1.42773483938E-03  1.44569353287E-03
  1.46387811891E-03  1.48229143889E-03  1.50093636993E-03  1.51981582532E-03
  1.53893275503E-03  1.55829014612E-03  1.57789102321E-03  1.59773844898E-03
  1.61783552463E-03  1.63818539038E-03  1.65879122593E-03  1.67965625098E-03
  1.70078372574E-03  1.72217695141E-03  1.74383927074E-03  1.76577406850E-03
  1.78798477205E-03  1.81047485186E-03  1.83324782205E-03  1.85630724094E-03
  1.87965671162E-03  1.90329988248E-03  1.92724044782E-03  1.95148214840E-03
  1.97602877203E-03  2.00088415419E-03  2.02605217856E-03  2.05153677771E-03
  2.07734193365E-03  2.10347167849E-03  2.12993009507E-03  2.15672131755E-03
  2.18384953213E-03  2.21131897765E-03  2.23913394625E-03  2.26729878408E-03
  2.29581789197E-03  2.32469572607E-03  2.35393679860E-03  2.38354567855E-03
  2.41352699237E-03  2.44388542468E-03  2.47462571907E-03  2.50575267876E-03
  2.53727116740E-03  2.56918610982E-03  2.60150249280E-03  2.63422536584E-03
  2.66735984195E-03  2.70091109847E-03  2.73488437784E-03  2.76928498845E-03
  2.80411830548E-03  2.83938977170E-03  2.87510489835E-03  2.91126926599E-03
  2.94788852537E-03  2.98496839834E-03  3.02251467868E-03  3.06053323310E-03
  3.09903000206E-03  3.13801100077E-03  3.17748232007E-03  3.21745012746E-03
  3.25792066797E-03  3.29890026521E-03  3.34039532234E-03  3.38241232303E-03
  3.42495783252E-03  3.46803849865E-03  3.51166105284E-03  3.55583231122E-03
  3.60055917564E-03  3.64584863475E-03  3.69170776512E-03  3.73814373235E-03
  3.78516379214E-03  3.83277529147E-03  3.88098566974E-03  3.92980245992E-03
  3.97923328972E-03  4.02928588283E-03  4.07996806005E-03  4.13128774058E-03
  4.18325294323E-03  4.23587178765E-03  4.28915249567E-03  4.34310339248E-03
  4.39773290804E-03  4.45304957831E-03  4.50906204664E-03  4.56577906509E-03
  4.62320949581E-03  4.68136231241E-03  4.74024660140E-03  4.79987156357E-03
  4.86024651543E-03  4.92138089070E-03  4.98328424175E-03  5.04596624110E-03
  5.10943668294E-03  5.17370548465E-03  5.23878268838E-03  5.30467846255E-03
  5.37140310353E-03  5.43896703718E-03  5.50738082049E-03  5.57665514325E-03
  5.64680082973E-03  5.71782884033E-03  5.78975027331E-03  5.86257636656E-03
  5.93631849929E-03  6.01098819386E-03  6.08659711757E-03  6.16315708446E-03
  6.24068005718E-03  6.31917814886E-03  6.39866362499E-03  6.47914890532E-03
  6.56064656585E-03  6.64316934075E-03  6.72673012438E-03  6.81134197328E-03
  6.89701810821E-03  6.98377191626E-03  7.07161695288E-03  7.16056694404E-03
  7.25063578835E-03  7.34183755925E-03  7.43418650721E-03  7.52769706193E-03
  7.62238383464E-03  7.71826162033E-03  7.81534540010E-03  7.91365034349E-03
  8.01319181084E-03  8.11398535572E-03  8.21604672732E-03  8.31939187293E-03
  8.42403694045E-03  8.52999828089E-03  8.63729245090E-03  8.74593621544E-03
  8.85594655030E-03  8.96734064483E-03  9.08013590458E-03  9.19434995404E-03
  9.31000063938E-03  9.42710603127E-03  9.54568442765E-03  9.66575435665E-03
  9.78733457943E-03  9.91044409315E-03  1.00351021339E-02  1.01613281798E-02
  1.02891419539E-02  1.04185634274E-02  1.05496128226E-02  1.06823106162E-02
  1.08166775427E-02  1.09527345970E-02  1.10905030383E-02  1.12300043934E-02
  1.13712604594E-02  1.15142933081E-02  1.16591252885E-02  1.18057790309E-02
  1.19542774503E-02  1.21046437500E-02  1.22569014248E-02  1.24110742654E-02
  1.25671863616E-02  1.27252621063E-02  1.28853261990E-02  1.30474036502E-02
  1.32115197847E-02  1.33777002461E-02  1.35459710004E-02  1.37163583402E-02
  1.38888888889E-02  1.40635896047E-02  1.42404877851E-02  1.44196110706E-02
  1.46009874497E-02  1.47846452627E-02  1.49706132067E-02  1.51589203395E-02
  1.53495960844E-02  1.55426702349E-02  1.57381729593E-02  1.59361348052E-02
  1.61365867046E-02  1.63395599785E-02  1.65450863418E-02  1.67531979086E-02
  1.69639271967E-02  1.71773071329E-02  1.73933710582E-02  1.76121527332E-02
  1.78336863429E-02  1.80580065023E-02  1.82851482621E-02  1.85151471134E-02
  1.87480389941E-02  1.89838602941E-02  1.92226478608E-02  1.94644390054E-02
  1.97092715082E-02  1.99571836248E-02  2.02082140919E-02  2.04624021336E-02
  2.07197874672E-02  2.09804103098E-02  2.12443113842E-02  2.15115319255E-02
  2.17821136874E-02  2.20560989488E-02  2.23335305206E-02  2.26144517520E-02
  2.28989065375E-02  2.31869393237E-02  2.34785951164E-02  2.37739194873E-02
  2.40729585815E-02  2.43757591244E-02  2.46823684294E-02  2.49928344046E-02
  2.53072055610E-02  2.56255310198E-02  2.59478605199E-02  2.62742444260E-02
  2.66047337363E-02  2.69393800904E-02  2.72782357774E-02  2.76213537442E-02
  2.79687876038E-02  2.83205916433E-02  2.86768208329E-02  2.90375308341E-02
  2.94027780085E-02  2.97726194268E-02  3.01471128775E-02  3.05263168760E-02
  3.09102906735E-02  3.12990942669E-02  3.16927884074E-02  3.20914346105E-02
  3.24950951656E-02  3.29038331455E-02  3.33177124162E-02  3.37367976473E-02
  3.41611543216E-02  3.45908487458E-02  3.50259480605E-02  3.54665202509E-02
  3.59126341572E-02  3.63643594856E-02  3.68217668192E-02  3.72849276288E-02
  3.77539142842E-02  3.82288000654E-02  3.87096591745E-02  3.91965667466E-02
  3.96895988620E-02  4.01888325579E-02  4.06943458407E-02  4.12062176979E-02
  4.17245281104E-02  4.22493580653E-02  4.27807895683E-02  4.33189056568E-02
  4.38637904124E-02  4.44155289744E-02  4.49742075533E-02  4.55399134436E-02
  4.61127350380E-02  4.66927618411E-02  4.72800844832E-02  4.78747947347E-02
  4.84769855203E-02  4.90867509335E-02  4.97041862514E-02  5.03293879495E-02
  5.09624537169E-02  5.16034824714E-02  5.22525743750E-02  5.29098308496E-02
  5.35753545930E-02  5.42492495945E-02  5.49316211517E-02  5.56225758864E-02
  5.63222217617E-02  5.70306680988E-02  5.77480255938E-02  5.84744063353E-02
  5.92099238218E-02  5.99546929793E-02  6.07088301796E-02  6.14724532581E-02
  6.22456815325E-02  6.30286358212E-02  6.38214384626E-02  6.46242133335E-02
  6.54370858693E-02  6.62601830829E-02  6.70936335849E-02  6.79375676036E-02
  6.87921170055E-02  6.96574153156E-02  7.05335977386E-02  7.14208011798E-02
  7.23191642664E-02  7.32288273696E-02  7.41499326260E-02  7.50826239603E-02
  7.60270471073E-02  7.69833496351E-02  7.79516809680E-02  7.89321924095E-02
  7.99250371667E-02  8.09303703736E-02  8.19483491155E-02  8.29791324537E-02
  8.40228814502E-02  8.50797591928E-02  8.61499308209E-02  8.72335635510E-02
  8.83308267028E-02  8.94418917260E-02  9.05669322268E-02  9.17061239950E-02
  9.28596450317E-02  9.40276755768E-02  9.52103981375E-02  9.64079975166E-02
  9.76206608415E-02  9.88485775933E-02  1.00091939636E-01  1.01350941249E-01
  1.02625779152E-01  1.03916652542E-01  1.05223763120E-01  1.06547315125E-01
  1.07887515365E-01  1.09244573249E-01  1.10618700820E-01  1.12010112788E-01
  1.13419026563E-01  1.14845662293E-01  1.16290242891E-01  1.17752994076E-01
  1.19234144405E-01  1.20733925313E-01  1.22252571141E-01  1.23790319183E-01
  1.25347409714E-01  1.26924086033E-01  1.28520594499E-01  1.30137184569E-01
  1.31774108838E-01  1.33431623081E-01  1.35109986286E-01  1.36809460701E-01
  1.38530311872E-01  1.40272808687E-01  1.42037223414E-01  1.43823831745E-01
  1.45632912843E-01  1.47464749380E-01  1.49319627584E-01  1.51197837284E-01
  1.53099671953E-01  1.55025428758E-01  1.56975408601E-01  1.58949916171E-01
  1.60949259989E-01  1.62973752456E-01  1.65023709904E-01  1.67099452642E-01
  1.69201305010E-01  1.71329595425E-01  1.73484656439E-01  1.75666824783E-01
  1.77876441426E-01  1.80113851625E-01  1.82379404979E-01  1.84673455487E-01
  1.86996361597E-01  1.89348486270E-01  1.91730197029E-01  1.94141866021E-01
  1.96583870075E-01  1.99056590758E-01  2.01560414439E-01  2.04095732344E-01
  2.06662940623E-01  2.09262440407E-01  2.11894637873E-01  2.14559944307E-01
  2.17258776169E-01  2.19991555157E-01  2.22758708273E-01  2.25560667890E-01
  2.28397871821E-01  2.31270763383E-01  2.34179791473E-01  2.37125410632E-01
  2.40108081119E-01  2.43128268982E-01  2.46186446131E-01  2.49283090414E-01
  2.52418685687E-01  2.55593721893E-01  2.58808695137E-01  2.62064107768E-01
  2.65360468448E-01  2.68698292241E-01  2.72078100689E-01  2.75500421894E-01
  2.78965790600E-01  2.82474748278E-01  2.86027843211E-01  2.89625630576E-01
  2.93268672535E-01  2.96957538321E-01  3.00692804327E-01  3.04475054194E-01
  3.08304878909E-01  3.12182876888E-01  3.16109654077E-01  3.20085824042E-01
  3.24112008069E-01  3.28188835256E-01  3.32316942616E-01  3.36496975175E-01
  3.40729586071E-01  3.45015436658E-01  3.49355196609E-01  3.53749544020E-01
  3.58199165517E-01  3.62704756362E-01  3.67267020563E-01  3.71886670984E-01
  3.76564429454E-01  3.81301026881E-01  3.86097203370E-01  3.90953708333E-01
  3.95871300608E-01  4.00850748579E-01  4.05892830295E-01  4.10998333591E-01
  4.16168056214E-01  4.21402805942E-01  4.26703400715E-01  4.32070668763E-01
  4.37505448733E-01  4.43008589818E-01  4.48580951897E-01  4.54223405663E-01
  4.59936832760E-01  4.65722125922E-01  4.71580189115E-01  4.77511937671E-01
  4.83518298439E-01  4.89600209925E-01  4.95758622440E-01  5.01994498248E-01
  5.08308811718E-01  5.14702549474E-01  5.21176710550E-01  5.27732306548E-01
  5.34370361792E-01  5.41091913493E-01  5.47898011906E-01  5.54789720498E-01
  5.61768116112E-01  5.68834289138E-01  5.75989343678E-01  5.83234397726E-01
  5.90570583334E-01  5.97999046798E-01  6.05520948829E-01  6.13137464741E-01
  6.20849784629E-01  6.28659113559E-01  6.36566671755E-01  6.44573694788E-01
  6.52681433772E-01  6.60891155558E-01  6.69204142932E-01  6.77621694815E-01
  6.86145126466E-01  6.94775769689E-01  7.03514973039E-01  7.12364102036E-01
  7.21324539373E-01  7.30397685136E-01  7.39584957024E-01  7.48887790566E-01
  7.58307639349E-01  7.67845975244E-01  7.77504288634E-01  7.87284088651E-01
  7.97186903409E-01  8.07214280242E-01  8.17367785949E-01  8.27649007036E-01
  8.38059549963E-01  8.48601041401E-01  8.59275128477E-01  8.70083479041E-01
  8.81027781918E-01  8.92109747179E-01  9.03331106403E-01  9.14693612950E-01
  9.26199042235E-01  9.37849192005E-01  9.49645882619E-01  9.61590957334E-01
  9.73686282593E-01  9.85933748314E-01  9.98335268190E-01  1.01089277998E+00
  1.02360824583E+00  1.03648365254E+00  1.04952101194E+00  1.06272236113E+00
  1.07608976285E+00  1.08962530579E+00  1.10333110489E+00  1.11720930173E+00
  1.13126206479E+00  1.14549158985E+00  1.15990010031E+00  1.17448984751E+00
  1.18926311114E+00  1.20422219955E+00  1.21936945014E+00  1.23470722967E+00
  1.25023793473E+00  1.26596399201E+00  1.28188785873E+00  1.29801202304E+00
  1.31433900437E+00  1.33087135385E+00  1.34761165468E+00  1.36456252257E+00
  1.38172660614E+00  1.39910658730E+00  1.41670518170E+00  1.43452513918E+00
  1.45256924413E+00  1.47084031597E+00  1.48934120961E+00  1.50807481584E+00
  1.52704406184E+00  1.54625191157E+00  1.56570136631E+00  1.58539546507E+00
  1.60533728510E+00  1.62552994235E+00  1.64597659195E+00  1.66668042875E+00
  1.68764468776E+00  1.70887264468E+00  1.73036761643E+00  1.75213296164E+00
  1.77417208119E+00  1.79648841874E+00  1.81908546126E+00  1.84196673958E+00
  1.86513582896E+00  1.88859634960E+00  1.91235196726E+00  1.93640639381E+00
  1.96076338780E+00  1.98542675505E+00  2.01040034928E+00  2.03568807265E+00
  2.06129387642E+00  2.08722176156E+00  2.11347577934E+00  2.14006003202E+00
  2.16697867342E+00  2.19423590966E+00  2.22183599971E+00  2.24978325617E+00
  2.27808204583E+00  2.30673679045E+00  2.33575196739E+00  2.36513211032E+00
  2.39488180996E+00  2.42500571475E+00  2.45550853162E+00  2.48639502669E+00
  2.51767002604E+00  2.54933841646E+00  2.58140514619E+00  2.61387522573E+00
  2.64675372859E+00  2.68004579211E+00  2.71375661823E+00  2.74789147435E+00
  2.78245569409E+00  2.81745467821E+00  2.85289389534E+00  2.88877888296E+00
  2.92511524815E+00  2.96190866855E+00  2.99916489320E+00  3.03688974347E+00
  3.07508911395E+00  3.11376897335E+00  3.15293536549E+00  3.19259441020E+00
  3.23275230427E+00  3.27341532248E+00  3.31458981848E+00  3.35628222589E+00
  3.39849905923E+00  3.44124691495E+00  3.48453247251E+00  3.52836249536E+00
  3.57274383202E+00  3.61768341718E+00  3.66318827274E+00  3.70926550891E+00
  3.75592232536E+00  3.80316601232E+00  3.85100395171E+00  3.89944361830E+00
  3.94849258089E+00  3.99815850348E+00  4.04844914646E+00  4.09937236787E+00
  4.15093612454E+00  4.20314847343E+00  4.25601757282E+00  4.30955168362E+00
  4.36375917063E+00  4.41864850390E+00  4.47422825998E+00  4.53050712333E+00
  4.58749388763E+00  4.64519745719E+00  4.70362684830E+00  4.76279119068E+00
  4.82269972887E+00  4.88336182371E+00  4.94478695376E+00  5.00698471684E+00
  5.06996483146E+00  5.13373713841E+00  5.19831160223E+00  5.26369831281E+00
  5.32990748696E+00  5.39694947000E+00  5.46483473738E+00  5.53357389630E+00
  5.60317768740E+00  5.67365698641E+00  5.74502280588E+00  5.81728629684E+00
  5.89045875062E+00  5.96455160057E+00  6.03957642384E+00  6.11554494321E+00
  6.19246902892E+00  6.27036070052E+00  6.34923212873E+00  6.42909563739E+00
  6.50996370531E+00  6.59184896831E+00  6.67476422112E+00  6.75872241942E+00
  6.84373668185E+00  6.92982029206E+00  7.01698670079E+00  7.10524952797E+00
  7.19462256484E+00  7.28511977612E+00  7.37675530219E+00  7.46954346129E+00
  7.56349875175E+00  7.65863585428E+00  7.75496963424E+00  7.85251514398E+00
  7.95128762519E+00  8.05130251127E+00  8.15257542975E+00  8.25512220472E+00
  8.35895885933E+00  8.46410161828E+00  8.57056691032E+00  8.67837137087E+00
  8.78753184461E+00  8.89806538808E+00  9.00998927237E+00  9.12332098582E+00
  9.23807823673E+00  9.35427895616E+00  9.47194130070E+00  9.59108365535E+00
  9.71172463633E+00  9.83388309405E+00  9.95757811600E+00  1.00828290298E+01
  1.02096554061E+01  1.03380770619E+01  1.04681140633E+01  1.05997867287E+01
  1.07331156324E+01  1.08681216073E+01  1.10048257483E+01  1.11432494157E+01
  1.12834142384E+01  1.14253421176E+01  1.15690552298E+01  1.17145760304E+01
  1.18619272573E+01  1.20111319345E+01  1.21622133755E+01  1.23151951870E+01
  1.24701012729E+01  1.26269558375E+01  1.27857833896E+01  1.29466087464E+01
  1.31094570371E+01  1.32743537072E+01  1.34413245220E+01  1.36103955712E+01
  1.37815932723E+01  1.39549443754E+01  1.41304759670E+01  1.43082154742E+01
  1.44881906692E+01  1.46704296734E+01  1.48549609621E+01  1.50418133687E+01
  1.52310160893E+01  1.54225986871E+01  1.56165910973E+01  1.58130236316E+01
  1.60119269831E+01  1.62133322307E+01  1.64172708445E+01  1.66237746903E+01
  1.68328760346E+01  1.70446075501E+01  1.72590023202E+01  1.74760938445E+01
  1.76959160441E+01  1.79185032665E+01  1.81438902915E+01  1.83721123363E+01
  1.86032050610E+01  1.88372045744E+01  1.90741474393E+01  1.93140706785E+01
  1.95570117806E+01  1.98030087056E+01  2.00520998909E+01  2.03043242577E+01
  2.05597212165E+01  2.08183306735E+01  2.10801930370E+01  2.13453492236E+01
  2.16138406644E+01  2.18857093118E+01  2.21609976458E+01  2.24397486808E+01
  2.27220059722E+01  2.30078136232E+01  2.32972162919E+01  2.35902591981E+01
  2.38869881302E+01  2.41874494529E+01  2.44916901137E+01  2.47997576509E+01
  2.51117002008E+01  2.54275665049E+01  2.57474059179E+01  2.60712684156E+01
  2.63992046019E+01  2.67312657177E+01  2.70675036482E+01  2.74079709312E+01
  2.77527207653E+01  2.81018070186E+01  2.84552842364E+01  2.88132076502E+01
  2.91756331864E+01  2.95426174746E+01  2.99142178569E+01  3.02904923966E+01
  3.06714998873E+01  3.10572998623E+01  3.14479526036E+01  3.18435191515E+01
  3.22440613140E+01  3.26496416768E+01  3.30603236124E+01  3.34761712909E+01
  3.38972496892E+01  3.43236246018E+01  3.47553626506E+01  3.51925312954E+01
  3.56351988449E+01  3.60834344667E+01  3.65373081986E+01  3.69968909592E+01
  3.74622545593E+01  3.79334717129E+01  3.84106160486E+01  3.88937621212E+01
  3.93829854233E+01  3.98783623969E+01  4.03799704459E+01  4.08878879473E+01
  4.14021942645E+01  4.19229697587E+01  4.24502958022E+01  4.29842547909E+01
  4.35249301568E+01  4.40724063816E+01  4.46267690095E+01  4.51881046609E+01
  4.57565010456E+01  4.63320469767E+01  4.69148323844E+01  4.75049483300E+01
  4.81024870205E+01  4.87075418225E+01  4.93202072770E+01  4.99405791142E+01
  5.05687542685E+01  5.12048308935E+01  5.18489083776E+01  5.25010873590E+01
  5.31614697422E+01  5.38301587132E+01  5.45072587560E+01  5.51928756689E+01
  5.58871165809E+01  5.65900899685E+01  5.73019056729E+01  5.80226749166E+01
  5.87525103213E+01  5.94915259252E+01  6.02398372012E+01  6.09975610742E+01
  6.17648159403E+01  6.25417216845E+01  6.33283997000E+01  6.41249729067E+01
  6.49315657710E+01  6.57483043245E+01  6.65753161843E+01  6.74127305728E+01
  6.82606783375E+01  6.91192919721E+01  6.99887056367E+01  7.08690551789E+01
  7.17604781552E+01  7.26631138522E+01  7.35771033086E+01  7.45025893371E+01
  7.54397165467E+01  7.63886313655E+01  7.73494820634E+01  7.83224187752E+01
  7.93075935244E+01  8.03051602463E+01  8.13152748129E+01  8.23380950567E+01
  8.33737807953E+01  8.44224938568E+01  8.54843981047E+01  8.65596594637E+01
  8.76484459457E+01  8.87509276756E+01  8.98672769186E+01  9.09976681064E+01
  9.21422778650E+01  9.33012850419E+01  9.44748707345E+01  9.56632183179E+01
  9.68665134737E+01  9.80849442193E+01  9.93187009371E+01
  </PP_R>
  <PP_RAB>
  1.58312841242E-07  1.60304171644E-07  1.62320549899E-07  1.64362291070E-07
  1.66429714183E-07  1.68523142278E-07  1.70642902456E-07  1.72789325936E-07
  1.74962748099E-07  1.77163508547E-07  1.79391951154E-07  1.81648424118E-07
  1.83933280019E-07  1.86246875868E-07  1.88589573171E-07  1.90961737978E-07
  1.93363740945E-07  1.95795957390E-07  1.98258767352E-07  2.00752555650E-07
  2.03277711943E-07  2.05834630792E-07  2.08423711721E-07  2.11045359278E-07
  2.13699983103E-07  2.16387997985E-07  2.19109823931E-07  2.21865886234E-07
  2.24656615532E-07  2.27482447884E-07  2.30343824831E-07  2.33241193469E-07
  2.36175006519E-07  2.39145722393E-07  2.42153805274E-07  2.45199725179E-07
  2.48283958040E-07  2.51406985774E-07  2.54569296362E-07  2.57771383920E-07
  2.61013748781E-07  2.64296897571E-07  2.67621343290E-07  2.70987605388E-07
  2.74396209850E-07  2.77847689279E-07  2.81342582974E-07  2.84881437020E-07
  2.88464804370E-07  2.92093244933E-07  2.95767325660E-07  2.99487620633E-07
  3.03254711156E-07  3.07069185845E-07  3.10931640719E-07  3.14842679294E-07
  3.18802912679E-07  3.22812959667E-07  3.26873446837E-07  3.30985008648E-07
  3.35148287540E-07  3.39363934033E-07  3.43632606832E-07  3.47954972925E-07
  3.52331707690E-07  3.56763495002E-07  3.61251027335E-07  3.65795005876E-07
  3.70396140632E-07  3.75055150537E-07  3.79772763573E-07  3.84549716876E-07
  3.89386756855E-07  3.94284639307E-07  3.99244129536E-07  4.04266002472E-07
  4.09351042793E-07  4.14500045048E-07  4.19713813779E-07  4.24993163646E-07
  4.30338919560E-07  4.35751916806E-07  4.41233001175E-07  4.46783029099E-07
  4.52402867779E-07  4.58093395328E-07  4.63855500903E-07  4.69690084843E-07
  4.75598058814E-07  4.81580345950E-07  4.87637880994E-07  4.93771610449E-07
  4.99982492724E-07  5.06271498280E-07  5.12639609787E-07  5.19087822277E-07
  5.25617143294E-07  5.32228593060E-07  5.38923204627E-07  5.45702024040E-07
  5.52566110505E-07  5.59516536549E-07  5.66554388190E-07  5.73680765107E-07
  5.80896780811E-07  5.88203562819E-07  5.95602252829E-07  6.03094006904E-07
  6.10679995644E-07  6.18361404377E-07  6.26139433336E-07  6.34015297856E-07
  6.41990228556E-07  6.50065471536E-07  6.58242288567E-07  6.66521957296E-07
  6.74905771437E-07  6.83395040977E-07  6.91991092383E-07  7.00695268805E-07
  7.09508930289E-07  7.18433453986E-07  7.27470234372E-07  7.36620683463E-07
  7.45886231033E-07  7.55268324845E-07  7.64768430870E-07  7.74388033517E-07
  7.84128635870E-07  7.93991759918E-07  8.03978946794E-07  8.14091757016E-07
  8.24331770731E-07  8.34700587963E-07  8.45199828859E-07  8.55831133949E-07
  8.66596164394E-07  8.77496602253E-07  8.88534150742E-07  8.99710534499E-07
  9.11027499858E-07  9.22486815117E-07  9.34090270818E-07  9.45839680024E-07
  9.57736878604E-07  9.69783725521E-07  9.81982103117E-07  9.94333917415E-07
  1.00684109841E-06  1.01950560038E-06  1.03232940217E-06  1.04531450752E-06
  1.05846294540E-06  1.07177677027E-06  1.08525806244E-06  1.09890892838E-06
  1.11273150109E-06  1.12672794035E-06  1.14090043315E-06  1.15525119396E-06
  1.16978246512E-06  1.18449651717E-06  1.19939564921E-06  1.21448218926E-06
  1.22975849463E-06  1.24522695226E-06  1.26088997913E-06  1.27675002264E-06
  1.29280956092E-06  1.30907110334E-06  1.32553719077E-06  1.34221039609E-06
  1.35909332452E-06  1.37618861404E-06  1.39349893583E-06  1.41102699467E-06
  1.42877552934E-06  1.44674731310E-06  1.46494515407E-06  1.48337189570E-06
  1.50203041721E-06  1.52092363402E-06  1.54005449825E-06  1.55942599913E-06
  1.57904116349E-06  1.59890305624E-06  1.61901478086E-06  1.63937947982E-06