<PP_INFO>
Generated using Vanderbilt code, version   7  3  6                              
Author: unknown    Generation date:   10    6   15                              
Automatically converted from original format                                    
    1        The Pseudo was generated with a Scalar-Relativistic Calculation
  1.80000000000E+00    Local Potential cutoff radius
nl pn  l   occ               Rcut            Rcut US             E pseu
3S  3  0  2.00      1.00000000000      1.80000000000     -6.31184793829
3P  3  1  6.00      1.00000000000      2.00000000000     -4.01255098825
4S  4  0  2.00      1.00000000000      1.80000000000     -0.37536750173
3D  3  2  5.00      1.00000000000      2.20000000000     -0.49768092690
</PP_INFO>


<PP_HEADER>
   0                   Version Number
  Mn                   Element
   US                  Ultrasoft pseudopotential
    T                  Nonlinear Core Correction
SLA  PW   PBE  PBE     PBE  Exchange-Correlation functional
   15.00000000000      Z valence
 -208.53320695198      Total energy
    0.00000    0.00000 Suggested cutoff for wfc and rho
    2                  Max angular momentum component
  859                  Number of points in mesh
    4    6             Number of Wavefunctions, Number of Projectors
 Wavefunctions         nl  l   occ
                       3S  0  2.00
                       3P  1  6.00
                       4S  0  2.00
                       3D  2  5.00
</PP_HEADER>


<PP_MESH>
  <PP_R>
  0.00000000000E+00  1.69483236320E-06  3.41863552031E-06  5.17190468664E-06
  6.95514354247E-06  8.76886437784E-06  1.06135882396E-05  1.24898450813E-05
  1.43981739152E-05  1.63391229672E-05  1.83132498344E-05  2.03211216453E-05
  2.23633152226E-05  2.44404172490E-05  2.65530244357E-05  2.87017436938E-05
  3.08871923089E-05  3.31099981181E-05  3.53707996903E-05  3.76702465103E-05
  4.00089991644E-05  4.23877295313E-05  4.48071209739E-05  4.72678685367E-05
  4.97706791449E-05  5.23162718074E-05  5.49053778239E-05  5.75387409943E-05
  6.02171178329E-05  6.29412777856E-05  6.57120034509E-05  6.85300908045E-05
  7.13963494285E-05  7.43116027435E-05  7.72766882453E-05  8.02924577456E-05
  8.33597776168E-05  8.64795290403E-05  8.96526082604E-05  9.28799268414E-05
  9.61624119295E-05  9.95010065191E-05  1.02896669724E-04  1.06350377052E-04
  1.09863120687E-04  1.13435909772E-04  1.17069770700E-04  1.20765747409E-04
  1.24524901682E-04  1.28348313450E-04  1.32237081107E-04  1.36192321820E-04
  1.40215171853E-04  1.44306786893E-04  1.48468342382E-04  1.52701033853E-04
  1.57006077279E-04  1.61384709413E-04  1.65838188153E-04  1.70367792897E-04
  1.74974824912E-04  1.79660607710E-04  1.84426487425E-04  1.89273833203E-04
  1.94204037591E-04  1.99218516943E-04  2.04318711822E-04  2.09506087413E-04
  2.14782133951E-04  2.20148367142E-04  2.25606328599E-04  2.31157586290E-04
  2.36803734985E-04  2.42546396711E-04  2.48387221225E-04  2.54327886482E-04
  2.60370099121E-04  2.66515594953E-04  2.72766139459E-04  2.79123528300E-04
  2.85589587831E-04  2.92166175626E-04  2.98855181010E-04  3.05658525606E-04
  3.12578163884E-04  3.19616083720E-04  3.26774306974E-04  3.34054890064E-04
  3.41459924561E-04  3.48991537789E-04  3.56651893433E-04  3.64443192167E-04
  3.72367672278E-04  3.80427610317E-04  3.88625321749E-04  3.96963161617E-04
  4.05443525221E-04  4.14068848805E-04  4.22841610258E-04  4.31764329825E-04
  4.40839570831E-04  4.50069940416E-04  4.59458090287E-04  4.69006717477E-04
  4.78718565124E-04  4.88596423252E-04  4.98643129578E-04  5.08861570329E-04
  5.19254681063E-04  5.29825447520E-04  5.40576906477E-04  5.51512146620E-04
  5.62634309431E-04  5.73946590094E-04  5.85452238407E-04  5.97154559721E-04
  6.09056915886E-04  6.21162726218E-04  6.33475468483E-04  6.45998679893E-04
  6.58735958124E-04  6.71690962351E-04  6.84867414294E-04  6.98269099294E-04
  7.11899867396E-04  7.25763634456E-04  7.39864383264E-04  7.54206164694E-04
  7.68793098863E-04  7.83629376313E-04  7.98719259220E-04  8.14067082617E-04
  8.29677255634E-04  8.45554262773E-04  8.61702665192E-04  8.78127102013E-04
  8.94832291659E-04  9.11823033208E-04  9.29104207771E-04  9.46680779895E-04
  9.64557798990E-04  9.82740400777E-04  1.00123380877E-03  1.02004333575E-03
  1.03917438536E-03  1.05863245355E-03  1.07842313027E-03  1.09855210098E-03
  1.11902514835E-03  1.13984815390E-03  1.16102709967E-03  1.18256806996E-03
  1.20447725307E-03  1.22676094309E-03  1.24942554169E-03  1.27247755997E-03
  1.29592362033E-03  1.31977045838E-03  1.34402492484E-03  1.36869398755E-03
  1.39378473346E-03  1.41930437066E-03  1.44526023044E-03  1.47165976942E-03
  1.49851057167E-03  1.52582035092E-03  1.55359695272E-03  1.58184835677E-03
  1.61058267914E-03  1.63980817466E-03  1.66953323923E-03  1.69976641229E-03
  1.73051637926E-03  1.76179197399E-03  1.79360218137E-03  1.82595613985E-03
  1.85886314409E-03  1.89233264765E-03  1.92637426566E-03  1.96099777762E-03
  1.99621313019E-03  2.03203044008E-03  2.06845999688E-03  2.10551226612E-03
  2.14319789219E-03  2.18152770145E-03  2.22051270530E-03  2.26016410338E-03
  2.30049328677E-03  2.34151184128E-03  2.38323155072E-03  2.42566440037E-03
  2.46882258037E-03  2.51271848922E-03  2.55736473737E-03  2.60277415083E-03
  2.64895977484E-03  2.69593487763E-03  2.74371295424E-03  2.79230773039E-03
  2.84173316642E-03  2.89200346130E-03  2.94313305672E-03  2.99513664121E-03
  3.04802915440E-03  3.10182579129E-03  3.15654200660E-03  3.21219351926E-03
  3.26879631685E-03  3.32636666027E-03  3.38492108837E-03  3.44447642270E-03
  3.50504977235E-03  3.56665853888E-03  3.62932042129E-03  3.69305342112E-03
  3.75787584764E-03  3.82380632308E-03  3.89086378798E-03  3.95906750666E-03
  4.02843707272E-03  4.09899241470E-03  4.17075380178E-03  4.24374184963E-03
  4.31797752628E-03  4.39348215823E-03  4.47027743649E-03  4.54838542285E-03
  4.62782855622E-03  4.70862965910E-03  4.79081194405E-03  4.87439902048E-03
  4.95941490132E-03  5.04588400999E-03  5.13383118740E-03  5.22328169907E-03
  5.31426124240E-03  5.40679595404E-03  5.50091241744E-03  5.59663767044E-03
  5.69399921303E-03  5.79302501532E-03  5.89374352550E-03  5.99618367804E-03
  6.10037490202E-03  6.20634712957E-03  6.31413080445E-03  6.42375689083E-03
  6.53525688216E-03  6.64866281023E-03  6.76400725437E-03  6.88132335081E-03
  7.00064480218E-03  7.12200588724E-03  7.24544147068E-03  7.37098701315E-03
  7.49867858145E-03  7.62855285891E-03  7.76064715588E-03  7.89499942051E-03
  8.03164824960E-03  8.17063289971E-03  8.31199329845E-03  8.45577005592E-03
  8.60200447640E-03  8.75073857022E-03  8.90201506579E-03  9.05587742193E-03
  9.21236984031E-03  9.37153727819E-03  9.53342546128E-03  9.69808089692E-03
  9.86555088745E-03  1.00358835437E-02  1.02091277991E-02  1.03853334232E-02
  1.05645510365E-02  1.07468321248E-02  1.09322290539E-02  1.11207950848E-02
  1.13125843888E-02  1.15076520633E-02  1.17060541474E-02  1.19078476383E-02
  1.21130905073E-02  1.23218417167E-02  1.25341612366E-02  1.27501100625E-02
  1.29697502322E-02  1.31931448440E-02  1.34203580749E-02  1.36514551989E-02
  1.38865026058E-02  1.41255678200E-02  1.43687195204E-02  1.46160275598E-02
  1.48675629850E-02  1.51233980572E-02  1.53836062729E-02  1.56482623849E-02
  1.59174424238E-02  1.61912237198E-02  1.64696849250E-02  1.67529060359E-02
  1.70409684163E-02  1.73339548211E-02  1.76319494197E-02  1.79350378200E-02
  1.82433070935E-02  1.85568458000E-02  1.88757440131E-02  1.92000933462E-02
  1.95299869784E-02  1.98655196818E-02  2.02067878486E-02  2.05538895183E-02
  2.09069244067E-02  2.12659939338E-02  2.16312012534E-02  2.20026512824E-02
  2.23804507312E-02  2.27647081344E-02  2.31555338815E-02  2.35530402494E-02
  2.39573414339E-02  2.43685535829E-02  2.47867948297E-02  2.52121853269E-02
  2.56448472809E-02  2.60849049873E-02  2.65324848659E-02  2.69877154980E-02
  2.74507276624E-02  2.79216543735E-02  2.84006309195E-02  2.88877949012E-02
  2.93832862712E-02  2.98872473746E-02  3.03998229898E-02  3.09211603698E-02
  3.14514092847E-02  3.19907220647E-02  3.25392536441E-02  3.30971616053E-02
  3.36646062245E-02  3.42417505175E-02  3.48287602867E-02  3.54258041686E-02
  3.60330536825E-02  3.66506832794E-02  3.72788703922E-02  3.79177954870E-02
  3.85676421147E-02  3.92285969634E-02  3.99008499129E-02  4.05845940884E-02
  4.12800259163E-02  4.19873451807E-02  4.27067550808E-02  4.34384622892E-02
  4.41826770111E-02  4.49396130450E-02  4.57094878440E-02  4.64925225783E-02
  4.72889421986E-02  4.80989755007E-02  4.89228551917E-02  4.97608179561E-02
  5.06131045246E-02  5.14799597425E-02  5.23616326405E-02  5.32583765062E-02
  5.41704489569E-02  5.50981120131E-02  5.60416321747E-02  5.70012804966E-02
  5.79773326673E-02  5.89700690877E-02  5.99797749517E-02  6.10067403282E-02
  6.20512602447E-02  6.31136347713E-02  6.41941691079E-02  6.52931736709E-02
  6.64109641831E-02  6.75478617641E-02  6.87041930227E-02  6.98802901502E-02
  7.10764910168E-02  7.22931392678E-02  7.35305844227E-02  7.47891819755E-02
  7.60692934969E-02  7.73712867383E-02  7.86955357370E-02  8.00424209242E-02
  8.14123292340E-02  8.28056542145E-02  8.42227961409E-02  8.56641621309E-02
  8.71301662608E-02  8.86212296853E-02  9.01377807582E-02  9.16802551551E-02
  9.32490959991E-02  9.48447539879E-02  9.64676875230E-02  9.81183628420E-02
  9.97972541518E-02  1.01504843766E-01  1.03241622241E-01  1.05008088520E-01
  1.06804750075E-01  1.08632123051E-01  1.10490732419E-01  1.12381112119E-01
  1.14303805223E-01  1.16259364082E-01  1.18248350490E-01  1.20271335845E-01
  1.22328901311E-01  1.24421637988E-01  1.26550147077E-01  1.28715040058E-01
  1.30916938864E-01  1.33156476057E-01  1.35434295012E-01  1.37751050104E-01
  1.40107406891E-01  1.42504042308E-01  1.44941644863E-01  1.47420914832E-01
  1.49942564461E-01  1.52507318171E-01  1.55115912766E-01  1.57769097645E-01
  1.60467635017E-01  1.63212300119E-01  1.66003881441E-01  1.68843180949E-01
  1.71731014320E-01  1.74668211172E-01  1.77655615305E-01  1.80694084942E-01
  1.83784492978E-01  1.86927727225E-01  1.90124690676E-01  1.93376301755E-01
  1.96683494587E-01  2.00047219265E-01  2.03468442122E-01  2.06948146009E-01
  2.10487330578E-01  2.14087012568E-01  2.17748226097E-01  2.21472022962E-01
  2.25259472938E-01  2.29111664085E-01  2.33029703063E-01  2.37014715450E-01
  2.41067846062E-01  2.45190259285E-01  2.49383139409E-01  2.53647690968E-01
  2.57985139083E-01  2.62396729820E-01  2.66883730544E-01  2.71447430284E-01
  2.76089140101E-01  2.80810193470E-01  2.85611946657E-01  2.90495779114E-01
  2.95463093870E-01  3.00515317940E-01  3.05653902729E-01  3.10880324454E-01
  3.16196084564E-01  3.21602710175E-01  3.27101754504E-01  3.32694797322E-01
  3.38383445401E-01  3.44169332980E-01  3.50054122233E-01  3.56039503744E-01
  3.62127197000E-01  3.68318950875E-01  3.74616544142E-01  3.81021785976E-01
  3.87536516481E-01  3.94162607211E-01  4.00901961715E-01  4.07756516079E-01
  4.14728239483E-01  4.21819134769E-01  4.29031239014E-01  4.36366624115E-01
  4.43827397388E-01  4.51415702167E-01  4.59133718426E-01  4.66983663401E-01
  4.74967792231E-01  4.83088398600E-01  4.91347815402E-01  4.99748415407E-01
  5.08292611945E-01  5.16982859598E-01  5.25821654907E-01  5.34811537086E-01
  5.43955088755E-01  5.53254936678E-01  5.62713752523E-01  5.72334253624E-01
  5.82119203765E-01  5.92071413972E-01  6.02193743323E-01  6.12489099768E-01
  6.22960440963E-01  6.33610775121E-01  6.44443161879E-01  6.55460713170E-01
  6.66666594124E-01  6.78064023974E-01  6.89656276981E-01  7.01446683374E-01
  7.13438630310E-01  7.25635562843E-01  7.38040984916E-01  7.50658460365E-01
  7.63491613948E-01  7.76544132382E-01  7.89819765402E-01  8.03322326840E-01
  8.17055695723E-01  8.31023817379E-01  8.45230704582E-01  8.59680438693E-01
  8.74377170844E-01  8.89325123119E-01  9.04528589777E-01  9.19991938479E-01
  9.35719611546E-01  9.51716127235E-01  9.67986081035E-01  9.84534146988E-01
  1.00136507903E+00  1.01848371237E+00  1.03589496486E+00  1.05360383841E+00
  1.07161542043E+00  1.08993488532E+00  1.10856749589E+00  1.12751860493E+00
  1.14679365673E+00  1.16639818864E+00  1.18633783267E+00  1.20661831708E+00
  1.22724546807E+00  1.24822521142E+00  1.26956357420E+00  1.29126668652E+00
  1.31334078325E+00  1.33579220585E+00  1.35862740419E+00  1.38185293838E+00
  1.40547548066E+00  1.42950181734E+00  1.45393885070E+00  1.47879360105E+00
  1.50407320867E+00  1.52978493590E+00  1.55593616922E+00  1.58253442138E+00
  1.60958733354E+00  1.63710267748E+00  1.66508835782E+00  1.69355241431E+00
  1.72250302412E+00  1.75194850420E+00  1.78189731367E+00  1.81235805624E+00
  1.84333948269E+00  1.87485049339E+00  1.90690014084E+00  1.93949763229E+00
  1.97265233235E+00  2.00637376575E+00  2.04067161998E+00  2.07555574817E+00
  2.11103617184E+00  2.14712308384E+00  2.18382685124E+00  2.22115801831E+00
  2.25912730959E+00  2.29774563291E+00  2.33702408257E+00  2.37697394252E+00
  2.41760668956E+00  2.45893399670E+00  2.50096773649E+00  2.54371998439E+00
  2.58720302231E+00  2.63142934207E+00  2.67641164905E+00  2.72216286578E+00
  2.76869613572E+00  2.81602482696E+00  2.86416253613E+00  2.91312309225E+00
  2.96292056075E+00  3.01356924748E+00  3.06508370282E+00  3.11747872588E+00
  3.17076936873E+00  3.22497094076E+00  3.28009901301E+00  3.33616942272E+00
  3.39319827783E+00  3.45120196163E+00  3.51019713745E+00  3.57020075347E+00
  3.63123004756E+00  3.69330255226E+00  3.75643609980E+00  3.82064882722E+00
  3.88595918161E+00  3.95238592535E+00  4.01994814158E+00  4.08866523960E+00
  4.15855696050E+00  4.22964338284E+00  4.30194492835E+00  4.37548236788E+00
  4.45027682731E+00  4.52634979364E+00  4.60372312116E+00  4.68241903773E+00
  4.76246015116E+00  4.84386945572E+00  4.92667033873E+00  5.01088658728E+00
  5.09654239506E+00  5.18366236933E+00  5.27227153798E+00  5.36239535670E+00
  5.45405971632E+00  5.54729095024E+00  5.64211584200E+00  5.73856163293E+00
  5.83665603007E+00  5.93642721402E+00  6.03790384711E+00  6.14111508163E+00
  6.24609056816E+00  6.35286046413E+00  6.46145544246E+00  6.57190670038E+00
  6.68424596842E+00  6.79850551945E+00  6.91471817805E+00  7.03291732987E+00
  7.15313693122E+00  7.27541151887E+00  7.39977621996E+00  7.52626676204E+00
  7.65491948341E+00  7.78577134351E+00  7.91885993353E+00  8.05422348725E+00
  8.19190089202E+00  8.33193169987E+00  8.47435613896E+00  8.61921512506E+00
  8.76655027336E+00  8.91640391040E+00  9.06881908622E+00  9.22383958677E+00
  9.38150994642E+00  9.54187546083E+00  9.70498219989E+00  9.87087702102E+00
  1.00396075826E+01  1.02112223576E+01  1.03857706478E+01  1.05633025973E+01
  1.07438692077E+01  1.09275223524E+01  1.11143147912E+01  1.13043001861E+01
  1.14975331162E+01  1.16940690936E+01  1.18939645791E+01  1.20972769991E+01
  1.23040647611E+01  1.25143872713E+01  1.27283049513E+01  1.29458792555E+01
  1.31671726887E+01  1.33922488244E+01  1.36211723225E+01  1.38540089482E+01
  1.40908255912E+01  1.43316902842E+01  1.45766722229E+01  1.48258417860E+01
  1.50792705550E+01  1.53370313351E+01  1.55991981761E+01  1.58658463933E+01
  1.61370525896E+01  1.64128946774E+01  1.66934519007E+01  1.69788048581E+01
  1.72690355262E+01  1.75642272824E+01  1.78644649298E+01  1.81698347207E+01
  1.84804243820E+01  1.87963231401E+01  1.91176217466E+01  1.94444125044E+01
  1.97767892941E+01  2.01148476012E+01  2.04586845432E+01  2.08083988979E+01
  2.11640911314E+01  2.15258634272E+01  2.18938197155E+01  2.22680657031E+01
  2.26487089035E+01  2.30358586682E+01  2.34296262178E+01  2.38301246741E+01
  2.42374690926E+01  2.46517764955E+01  2.50731659051E+01  2.55017583787E+01
  2.59376770424E+01  2.63810471273E+01  2.68319960050E+01  2.72906532244E+01
  2.77571505489E+01  2.82316219941E+01  2.87142038665E+01  2.92050348025E+01
  2.97042558084E+01  3.02120103006E+01  3.07284441472E+01  3.12537057097E+01
  3.17879458856E+01  3.23313181516E+01  3.28839786082E+01  3.34460860240E+01
  3.40178018816E+01  3.45992904239E+01  3.51907187013E+01  3.57922566197E+01
  3.64040769893E+01  3.70263555742E+01  3.76592711431E+01  3.83030055204E+01
  3.89577436384E+01  3.96236735907E+01  4.03009866863E+01  4.09898775039E+01
  4.16905439486E+01  4.24031873084E+01  4.31280123118E+01  4.38652271871E+01
  4.46150437217E+01  4.53776773236E+01  4.61533470826E+01  4.69422758336E+01
  4.77446902205E+01  4.85608207615E+01  4.93909019151E+01  5.02351721476E+01
  5.10938740014E+01  5.19672541650E+01  5.28555635436E+01  5.37590573312E+01
  5.46779950843E+01  5.56126407957E+01  5.65632629712E+01  5.75301347061E+01
  5.85135337639E+01  5.95137426561E+01  6.05310487235E+01  6.15657442183E+01
  6.26181263885E+01  6.36884975633E+01  6.47771652394E+01  6.58844421701E+01
  6.70106464546E+01  6.81561016296E+01  6.93211367623E+01  7.05060865445E+01
  7.17112913896E+01  7.29370975295E+01  7.41838571146E+01  7.54519283148E+01
  7.67416754224E+01  7.80534689569E+01  7.93876857710E+01  8.07447091596E+01
  8.21249289691E+01  8.35287417100E+01  8.49565506705E+01  8.64087660325E+01
  8.78858049894E+01  8.93880918660E+01  9.09160582400E+01  9.24701430668E+01
  9.40507928047E+01  9.56584615440E+01  9.72936111367E+01  9.89567113296E+01
  1.00648239899E+02  1.02368682789E+02  1.04118534249E+02  1.05898296978E+02
  1.07708482266E+02  1.09549610146E+02  1.11422209537E+02  1.13326818402E+02
  1.15263983897E+02  1.17234262532E+02  1.19238220332E+02  1.21276432993E+02
  1.23349486054E+02  1.25457975065E+02  1.27602505753E+02  1.29783694200E+02
  1.32002167019E+02  1.34258561535E+02  1.36553525966E+02  1.38887719611E+02
  1.41261813039E+02  1.43676488281E+02  1.46132439026E+02  1.48630370822E+02
  1.51171001275E+02  1.53755060261E+02  1.56383290128E+02  1.59056445917E+02
  1.61775295573E+02  1.64540620170E+02  1.67353214132E+02  1.70213885462E+02
  1.73123455976E+02  1.76082761537E+02  1.79092652297E+02  1.82153992939E+02
  1.85267662926E+02  1.88434556757E+02  1.91655584218E+02  1.94931670647E+02
  1.98263757203E+02  2.01652801127E+02  2.05099776028E+02
  </PP_R>
  <PP_RAB>
  1.68050995028E-06  1.70923592254E-06  1.73845292520E-06  1.76816935175E-06
  1.79839373914E-06  1.82913477025E-06  1.86040127638E-06  1.89220223980E-06
  1.92454679630E-06  1.95744423786E-06  1.99090401527E-06  2.02493574088E-06
  2.05954919134E-06  2.09475431043E-06  2.13056121190E-06  2.16698018238E-06
  2.20402168433E-06  2.24169635906E-06  2.28001502978E-06  2.31898870469E-06
  2.35862858019E-06  2.39894604403E-06  2.43995267865E-06  2.48166026446E-06
  2.52408078325E-06  2.56722642159E-06  2.61110957442E-06  2.65574284849E-06
  2.70113906609E-06  2.74731126868E-06  2.79427272064E-06  2.84203691307E-06
  2.89061756771E-06  2.94002864085E-06  2.99028432732E-06  3.04139906462E-06
  3.09338753701E-06  3.14626467978E-06  3.20004568351E-06  3.25474599844E-06
  3.31038133892E-06  3.36696768789E-06  3.42452130153E-06  3.48305871387E-06
  3.54259674158E-06  3.60315248878E-06  3.66474335197E-06  3.72738702501E-06
  3.79110150421E-06  3.85590509351E-06  3.92181640973E-06  3.98885438791E-06
  4.05703828678E-06  4.12638769423E-06  4.19692253302E-06  4.26866306644E-06
  4.34162990416E-06  4.41584400813E-06  4.49132669864E-06  4.56809966040E-06
  4.64618494879E-06  4.72560499621E-06  4.80638261850E-06  4.88854102151E-06
  4.97210380776E-06  5.05709498322E-06  5.14353896421E-06  5.23146058441E-06
  5.32088510200E-06  5.41183820692E-06  5.50434602823E-06  5.59843514165E-06
  5.69413257714E-06  5.79146582674E-06  5.89046285240E-06  5.99115209405E-06
  6.09356247776E-06  6.19772342406E-06  6.30366485637E-06  6.41141720961E-06
  6.52101143895E-06  6.63247902868E-06  6.74585200130E-06  6.86116292666E-06
  6.97844493136E-06  7.09773170825E-06  7.21905752611E-06  7.34245723951E-06
  7.46796629878E-06  7.59562076026E-06  7.72545729661E-06  7.85751320734E-06
  7.99182642957E-06  8.12843554888E-06  8.26737981044E-06  8.40869913023E-06
  8.55243410656E-06  8.69862603172E-06  8.84731690381E-06  8.99854943885E-06
  9.15236708301E-06  9.30881402513E-06  9.46793520938E-06  9.62977634820E-06
  9.79438393543E-06  9.96180525963E-06  1.01320884177E-05  1.03052823287E-05
  1.04814367480E-05  1.06606022811E-05  1.08428303990E-05  1.10281734523E-05
  1.12166846864E-05  1.14084182570E-05  1.16034292453E-05  1.18017736744E-05
  1.20035085246E-05  1.22086917506E-05  1.24173822974E-05  1.26296401180E-05
  1.28455261897E-05  1.30651025325E-05  1.32884322265E-05  1.35155794298E-05
  1.37466093977E-05  1.39815885004E-05  1.42205842429E-05  1.44636652841E-05
  1.47109014564E-05  1.49623637861E-05  1.52181245133E-05  1.54782571133E-05
  1.57428363170E-05  1.60119381329E-05  1.62856398688E-05  1.65640201539E-05
  1.68471589614E-05  1.71351376318E-05  1.74280388956E-05  1.77259468977E-05
  1.80289472213E-05  1.83371269126E-05  1.86505745056E-05  1.89693800478E-05
  1.92936351258E-05  1.96234328918E-05  1.99588680904E-05  2.03000370855E-05
  2.06470378885E-05  2.09999701859E-05  2.13589353684E-05  2.17240365597E-05
  2.20953786463E-05  2.24730683077E-05  2.28572140467E-05  2.32479262210E-05
  2.36453170746E-05  2.40495007703E-05  2.44605934221E-05  2.48787131291E-05
  2.53039800090E-05  2.57365162327E-05  2.61764460594E-05  2.66238958726E-05
  2.70789942159E-05  2.75418718302E-05  2.80126616913E-05  2.84914990481E-05
  2.89785214612E-05  2.94738688428E-05  2.99776834965E-05  3.04901101586E-05
  3.10112960394E-05  3.15413908654E-05  3.20805469226E-05  3.26289191002E-05
  3.31866649349E-05  3.37539446562E-05  3.43309212326E-05  3.49177604184E-05
  3.55146308010E-05  3.61217038499E-05  3.67391539653E-05  3.73671585286E-05
  3.80058979536E-05  3.86555557375E-05  3.93163185146E-05  3.99883761093E-05
  4.06719215905E-05  4.13671513278E-05  4.20742650472E-05  4.27934658888E-05
  4.35249604650E-05  4.42689589202E-05  4.50256749905E-05  4.57953260661E-05
  4.65781332526E-05  4.73743214355E-05  4.81841193441E-05  4.90077596179E-05
  4.98454788727E-05  5.06975177690E-05  5.15641210811E-05  5.24455377674E-05
  5.33420210418E-05  5.42538284467E-05  5.51812219266E-05  5.61244679038E-05
  5.70838373545E-05  5.80596058871E-05  5.90520538210E-05  6.00614662672E-05
  6.10881332105E-05  6.21323495923E-05  6.31944153958E-05  6.42746357320E-05
  6.53733209273E-05  6.64907866127E-05  6.76273538144E-05  6.87833490462E-05
  6.99591044031E-05  7.11549576570E-05  7.23712523534E-05  7.36083379100E-05
  7.48665697178E-05  7.61463092423E-05  7.74479241280E-05  7.87717883036E-05
  8.01182820897E-05  8.14877923078E-05  8.28807123919E-05  8.42974425008E-05
  8.57383896337E-05  8.72039677468E-05  8.86945978724E-05  9.02107082396E-05
  9.17527343977E-05  9.33211193409E-05  9.49163136358E-05  9.65387755509E-05
  9.81889711881E-05  9.98673746167E-05  1.01574468010E-04  1.03310741781E-04
  1.05076694730E-04  1.06872834180E-04  1.08699676127E-04  1.10557745388E-04
  1.12447575750E-04  1.14369710124E-04  1.16324700702E-04  1.18313109116E-04
  1.20335506597E-04  1.22392474141E-04  1.24484602674E-04  1.26612493224E-04
  1.28776757094E-04  1.30978016033E-04  1.33216902423E-04  1.35494059450E-04
  1.37810141299E-04  1.40165813335E-04  1.42561752297E-04  1.44998646491E-04
  1.47477195991E-04  1.49998112835E-04  1.52562121235E-04  1.55169957780E-04
  1.57822371651E-04  1.60520124835E-04  1.63263992345E-04  1.66054762441E-04
  1.68893236856E-04  1.71780231031E-04  1.74716574341E-04  1.77703110343E-04
  1.80740697009E-04  1.83830206980E-04  1.86972527813E-04  1.90168562234E-04
  1.93419228404E-04  1.96725460175E-04  2.00088207364E-04  2.03508436023E-04
  2.06987128718E-04  2.10525284809E-04  2.14123920741E-04  2.17784070332E-04
  2.21506785072E-04  2.25293134425E-04  2.29144206135E-04  2.33061106543E-04
  2.37044960896E-04  2.41096913679E-04  2.45218128940E-04  2.49409790625E-04
  2.53673102916E-04  2.58009290580E-04  2.62419599322E-04  2.66905296136E-04
  2.71467669677E-04  2.76108030626E-04  2.80827712069E-04  2.85628069880E-04
  2.90510483108E-04  2.95476354377E-04  3.00527110284E-04  3.05664201814E-04
  3.10889104755E-04  3.16203320120E-04  3.21608374580E-04  3.27105820902E-04
  3.32697238397E-04  3.38384233371E-04  3.44168439587E-04  3.50051518735E-04
  3.56035160911E-04  3.62121085100E-04  3.68311039668E-04  3.74606802872E-04
  3.81010183360E-04  3.87523020702E-04  3.94147185909E-04  4.00884581974E-04
  4.07737144423E-04  4.14706841864E-04  4.21795676555E-04  4.29005684982E-04
  4.36338938441E-04  4.43797543633E-04  4.51383643271E-04  4.59099416696E-04
  4.66947080499E-04  4.74928889162E-04  4.83047135705E-04  4.91304152343E-04
  4.99702311157E-04  5.08244024774E-04  5.16931747066E-04  5.25767973845E-04
  5.34755243589E-04  5.43896138166E-04  5.53193283579E-04  5.62649350718E-04
  5.72267056128E-04  5.82049162788E-04  5.91998480911E-04  6.02117868741E-04
  6.12410233383E-04  6.22878531635E-04  6.33525770835E-04  6.44355009730E-04
  6.55369359351E-04  6.66571983907E-04  6.77966101695E-04  6.89554986025E-04
  7.01341966159E-04  7.13330428268E-04  7.25523816405E-04  7.37925633496E-04
  7.50539442341E-04  7.63368866645E-04  7.76417592053E-04  7.89689367210E-04
  8.03188004841E-04  8.16917382844E-04  8.30881445402E-04  8.45084204122E-04
  8.59529739181E-04  8.74222200501E-04  8.89165808942E-04  9.04364857514E-04
  9.19823712609E-04  9.35546815258E-04  9.51538682403E-04  9.67803908198E-04
  9.84347165329E-04  1.00117320635E-03  1.01828686506E-03  1.03569305789E-03
  1.05339678528E-03  1.07140313319E-03  1.08971727449E-03  1.10834447047E-03
  1.12729007238E-03  1.14655952290E-03  1.16615835779E-03  1.18609220741E-03
  1.20636679837E-03  1.22698795517E-03  1.24796160186E-03  1.26929376377E-03
  1.29099056922E-03  1.31305825128E-03  1.33550314956E-03  1.35833171206E-03
  1.38155049697E-03  1.40516617460E-03  1.42918552929E-03  1.45361546132E-03
  1.47846298895E-03  1.50373525038E-03  1.52943950585E-03  1.55558313970E-03
  1.58217366248E-03  1.60921871313E-03  1.63672606119E-03  1.66470360897E-03
  1.69315939388E-03  1.72210159072E-03  1.75153851403E-03  1.78147862045E-03
  1.81193051121E-03  1.84290293455E-03  1.87440478823E-03  1.90644512214E-03
  1.93903314085E-03  1.97217820625E-03  2.00588984029E-03  2.04017772766E-03
  2.07505171861E-03  2.11052183177E-03  2.14659825701E-03  2.18329135840E-03
  2.22061167714E-03  2.25856993464E-03  2.29717703558E-03  2.33644407103E-03
  2.37638232166E-03  2.41700326093E-03  2.45831855848E-03  2.50034008337E-03
  2.54307990759E-03  2.58655030945E-03  2.63076377717E-03  2.67573301241E-03
  2.72147093397E-03  2.76799068146E-03  2.81530561911E-03  2.86342933959E-03
  2.91237566791E-03  2.96215866541E-03  3.01279263376E-03  3.06429211914E-03
  3.11667191635E-03  3.16994707309E-03  3.22413289428E-03  3.27924494647E-03
  3.33529906227E-03  3.39231134495E-03  3.45029817304E-03  3.50927620502E-03
  3.56926238415E-03  3.63027394330E-03  3.69232840990E-03  3.75544361100E-03
  3.81963767839E-03  3.88492905376E-03  3.95133649408E-03  4.01887907690E-03
  4.08757620592E-03  4.15744761648E-03  4.22851338130E-03  4.30079391618E-03
  4.37430998593E-03  4.44908271029E-03  4.52513357003E-03  4.60248441307E-03
  4.68115746082E-03  4.76117531453E-03  4.84256096177E-03  4.92533778306E-03
  5.00952955860E-03  5.09516047503E-03  5.18225513248E-03  5.27083855154E-03
  5.36093618053E-03  5.45257390274E-03  5.54577804392E-03  5.64057537982E-03
  5.73699314387E-03  5.83505903504E-03  5.93480122576E-03  6.03624837002E-03
  6.13942961164E-03  6.24437459258E-03  6.35111346151E-03  6.45967688243E-03
  6.57009604352E-03  6.68240266607E-03  6.79662901360E-03  6.91280790112E-03
  7.03097270458E-03  7.15115737044E-03  7.27339642544E-03  7.39772498648E-03
  7.52417877076E-03  7.65279410600E-03  7.78360794090E-03  7.91665785574E-03
  8.05198207318E-03  8.18961946927E-03  8.32960958455E-03  8.47199263549E-03
  8.61680952596E-03  8.76410185907E-03  8.91391194905E-03  9.06628283345E-03
  9.22125828546E-03  9.37888282653E-03  9.53920173916E-03  9.70226107985E-03
  9.86810769240E-03  1.00367892213E-02  1.02083541256E-02  1.03828516925E-02
  1.05603320517E-02  1.07408461900E-02  1.09244459655E-02  1.11111841230E-02
  1.13011143087E-02  1.14942910858E-02  1.16907699503E-02  1.18906073468E-02
  1.20938606847E-02  1.23005883548E-02  1.25108497458E-02  1.27247052619E-02
  1.29422163396E-02  1.31634454656E-02  1.33884561947E-02  1.36173131683E-02
  1.38500821324E-02  1.40868299571E-02  1.43276246554E-02  1.45725354031E-02
  1.48216325581E-02  1.50749876815E-02  1.53326735570E-02  1.55947642130E-02
  1.58613349429E-02  1.61324623275E-02  1.64082242563E-02  1.66886999504E-02
  1.69739699851E-02  1.72641163129E-02  1.75592222872E-02  1.78593726863E-02
  1.81646537376E-02  1.84751531424E-02  1.87909601012E-02  1.91121653392E-02
  1.94388611325E-02  1.97711413344E-02  2.01091014027E-02  2.04528384266E-02
  2.08024511553E-02  2.11580400256E-02  2.15197071914E-02  2.18875565526E-02
  2.22616937853E-02  2.26422263719E-02  2.30292636319E-02  2.34229167537E-02
  2.38232988263E-02  2.42305248716E-02  2.46447118778E-02  2.50659788329E-02
  2.54944467586E-02  2.59302387456E-02  2.63734799883E-02  2.68242978215E-02
  2.72828217564E-02  2.77491835181E-02  2.82235170832E-02  2.87059587186E-02
  2.91966470205E-02  2.96957229541E-02  3.02033298942E-02  3.07196136666E-02
  3.12447225895E-02  3.17788075166E-02  3.23220218802E-02  3.28745217351E-02
  3.34364658041E-02  3.40080155226E-02  3.45893350859E-02  3.51805914959E-02
  3.57819546090E-02  3.63935971852E-02  3.70156949377E-02  3.76484265831E-02
  3.82919738929E-02  3.89465217458E-02  3.96122581807E-02  4.02893744509E-02
  4.09780650787E-02  4.16785279117E-02  4.23909641793E-02  4.31155785505E-02
  4.38525791931E-02  4.46021778332E-02  4.53645898158E-02  4.61400341673E-02
  4.69287336577E-02  4.77309148652E-02  4.85468082409E-02  4.93766481752E-02
  5.02206730651E-02  5.10791253825E-02  5.19522517442E-02  5.28403029825E-02
  5.37435342173E-02  5.46622049295E-02  5.55965790355E-02  5.65469249628E-02
  5.75135157274E-02  5.84966290121E-02  5.94965472463E-02  6.05135576873E-02