<PP_INFO>
Generated using Vanderbilt code, version   7  3  6                              
Author: unknown    Generation date:   15    4   15                              
Automatically converted from original format                                    
    1        The Pseudo was generated with a Scalar-Relativistic Calculation
  1.80000000000E+00    Local Potential cutoff radius
nl pn  l   occ               Rcut            Rcut US             E pseu
4S  4  0  2.00      1.00000000000      1.80000000000     -4.93159169514
4P  4  1  6.00      1.00000000000      2.00000000000     -3.02026414768
4D  4  2  4.00      1.00000000000      2.20000000000     -0.41545389362
5S  5  0  2.00      1.00000000000      1.80000000000     -0.35855576583
5P  5  1  0.00      1.00000000000      2.00000000000     -0.10539232084
</PP_INFO>


<PP_HEADER>
   0                   Version Number
  ni                   Element
   US                  Ultrasoft pseudopotential
    T                  Nonlinear Core Correction
SLA  PW   PBE  PBE     PBE  Exchange-Correlation functional
   14.00000000000      Z valence
 -138.52050891846      Total energy
    0.00000    0.00000 Suggested cutoff for wfc and rho
    2                  Max angular momentum component
  889                  Number of points in mesh
    5    6             Number of Wavefunctions, Number of Projectors
 Wavefunctions         nl  l   occ
                       4S  0  2.00
                       4P  1  6.00
                       4D  2  4.00
                       5S  0  2.00
                       5P  1  0.00
</PP_HEADER>


<PP_MESH>
  <PP_R>
  0.00000000000E+00  1.00882878762E-06  2.03490209543E-06  3.07851469443E-06
  4.13996639433E-06  5.21956212967E-06  6.31761204740E-06  7.43443159602E-06
  8.57034161618E-06  9.72566843284E-06  1.09007439490E-05  1.20959057412E-05
  1.33114971563E-05  1.45478674101E-05  1.58053716879E-05  1.70843712463E-05
  1.83852335172E-05  1.97083322131E-05  2.10540474347E-05  2.24227657799E-05
  2.38148804550E-05  2.52307913877E-05  2.66709053416E-05  2.81356360338E-05
  2.96254042529E-05  3.11406379806E-05  3.26817725142E-05  3.42492505918E-05
  3.58435225196E-05  3.74650463010E-05  3.91142877684E-05  4.07917207170E-05
  4.24978270408E-05  4.42330968711E-05  4.59980287174E-05  4.77931296105E-05
  4.96189152481E-05  5.14759101430E-05  5.33646477741E-05  5.52856707389E-05
  5.72395309104E-05  5.92267895947E-05  6.12480176927E-05  6.33037958642E-05
  6.53947146945E-05  6.75213748641E-05  6.96843873212E-05  7.18843734576E-05
  7.41219652867E-05  7.63978056253E-05  7.87125482783E-05  8.10668582264E-05
  8.34614118174E-05  8.58968969601E-05  8.83740133224E-05  9.08934725318E-05
  9.34559983802E-05  9.60623270317E-05  9.87132072340E-05  1.01409400534E-04
  1.04151681495E-04  1.06940837922E-04  1.09777671086E-04  1.12662995954E-04
  1.15597641423E-04  1.18582450561E-04  1.21618280846E-04  1.24706004413E-04
  1.27846508304E-04  1.31040694727E-04  1.34289481309E-04  1.37593801363E-04
  1.40954604157E-04  1.44372855185E-04  1.47849536443E-04  1.51385646716E-04
  1.54982201858E-04  1.58640235091E-04  1.62360797297E-04  1.66144957322E-04
  1.69993802280E-04  1.73908437872E-04  1.77889988697E-04  1.81939598575E-04
  1.86058430883E-04  1.90247668881E-04  1.94508516056E-04  1.98842196467E-04
  2.03249955096E-04  2.07733058208E-04  2.12292793710E-04  2.16930471528E-04
  2.21647423975E-04  2.26445006141E-04  2.31324596279E-04  2.36287596200E-04
  2.41335431679E-04  2.46469552860E-04  2.51691434678E-04  2.57002577277E-04
  2.62404506447E-04  2.67898774057E-04  2.73486958504E-04  2.79170665165E-04
  2.84951526859E-04  2.90831204316E-04  2.96811386654E-04  3.02893791862E-04
  3.09080167299E-04  3.15372290190E-04  3.21771968141E-04  3.28281039654E-04
  3.34901374662E-04  3.41634875056E-04  3.48483475243E-04  3.55449142691E-04
  3.62533878503E-04  3.69739717987E-04  3.77068731240E-04  3.84523023746E-04
  3.92104736979E-04  3.99816049018E-04  4.07659175175E-04  4.15636368628E-04
  4.23749921069E-04  4.32002163366E-04  4.40395466229E-04  4.48932240890E-04
  4.57614939799E-04  4.66446057329E-04  4.75428130488E-04  4.84563739653E-04
  4.93855509306E-04  5.03306108794E-04  5.12918253090E-04  5.22694703579E-04
  5.32638268844E-04  5.42751805481E-04  5.53038218911E-04  5.63500464223E-04
  5.74141547018E-04  5.84964524272E-04  5.95972505218E-04  6.07168652235E-04
  6.18556181760E-04  6.30138365209E-04  6.41918529920E-04  6.53900060107E-04
  6.66086397830E-04  6.78481043989E-04  6.91087559327E-04  7.03909565450E-04
  7.16950745873E-04  7.30214847075E-04  7.43705679576E-04  7.57427119030E-04
  7.71383107342E-04  7.85577653797E-04  8.00014836213E-04  8.14698802114E-04
  8.29633769919E-04  8.44824030156E-04  8.60273946691E-04  8.75987957987E-04
  8.91970578376E-04  9.08226399355E-04  9.24760090906E-04  9.41576402840E-04
  9.58680166157E-04  9.76076294439E-04  9.93769785254E-04  1.01176572160E-03
  1.03006927337E-03  1.04868569880E-03  1.06762034605E-03  1.08687865467E-03
  1.10646615720E-03  1.12638848074E-03  1.14665134861E-03  1.16726058192E-03
  1.18822210131E-03  1.20954192862E-03  1.23122618862E-03  1.25328111079E-03
  1.27571303107E-03  1.29852839372E-03  1.32173375315E-03  1.34533577582E-03
  1.36934124213E-03  1.39375704838E-03  1.41859020876E-03  1.44384785736E-03
  1.46953725022E-03  1.49566576739E-03  1.52224091510E-03  1.54927032788E-03
  1.57676177074E-03  1.60472314144E-03  1.63316247276E-03  1.66208793476E-03
  1.69150783716E-03  1.72143063173E-03  1.75186491471E-03  1.78281942929E-03
  1.81430306810E-03  1.84632487577E-03  1.87889405155E-03  1.91201995194E-03
  1.94571209336E-03  1.97998015493E-03  2.01483398117E-03  2.05028358494E-03
  2.08633915021E-03  2.12301103505E-03  2.16030977458E-03  2.19824608400E-03
  2.23683086169E-03  2.27607519231E-03  2.31599034999E-03  2.35658780158E-03
  2.39787920995E-03  2.43987643732E-03  2.48259154868E-03  2.52603681525E-03
  2.57022471803E-03  2.61516795133E-03  2.66087942648E-03  2.70737227550E-03
  2.75465985490E-03  2.80275574946E-03  2.85167377622E-03  2.90142798838E-03
  2.95203267936E-03  3.00350238690E-03  3.05585189726E-03  3.10909624945E-03
  3.16325073952E-03  3.21833092503E-03  3.27435262943E-03  3.33133194669E-03
  3.38928524585E-03  3.44822917579E-03  3.50818066994E-03  3.56915695121E-03
  3.63117553692E-03  3.69425424379E-03  3.75841119313E-03  3.82366481597E-03
  3.89003385843E-03  3.95753738704E-03  4.02619479427E-03  4.09602580405E-03
  4.16705047749E-03  4.23928921860E-03  4.31276278017E-03  4.38749226973E-03
  4.46349915563E-03  4.54080527316E-03  4.61943283088E-03  4.69940441697E-03
  4.78074300572E-03  4.86347196412E-03  4.94761505860E-03  5.03319646186E-03
  5.12024075976E-03  5.20877295846E-03  5.29881849154E-03  5.39040322734E-03
  5.48355347638E-03  5.57829599892E-03  5.67465801267E-03  5.77266720055E-03
  5.87235171872E-03  5.97374020460E-03  6.07686178516E-03  6.18174608521E-03
  6.28842323600E-03  6.39692388379E-03  6.50727919874E-03  6.61952088378E-03
  6.73368118379E-03  6.84979289480E-03  6.96788937346E-03  7.08800454660E-03
  7.21017292100E-03  7.33442959325E-03  7.46081025991E-03  7.58935122768E-03
  7.72008942391E-03  7.85306240713E-03  7.98830837793E-03  8.12586618985E-03
  8.26577536058E-03  8.40807608333E-03  8.55280923834E-03  8.70001640464E-03
  8.84973987200E-03  9.00202265308E-03  9.15690849578E-03  9.31444189580E-03
  9.47466810943E-03  9.63763316658E-03  9.80338388394E-03  9.97196787848E-03
  1.01434335811E-02  1.03178302507E-02  1.04952079879E-02  1.06756177500E-02
  1.08591113652E-02  1.10457415476E-02  1.12355619126E-02  1.14286269918E-02
  1.16249922490E-02  1.18247140963E-02  1.20278499099E-02  1.22344580466E-02
  1.24445978611E-02  1.26583297225E-02  1.28757150318E-02  1.30968162395E-02
  1.33216968638E-02  1.35504215085E-02  1.37830558819E-02  1.40196668151E-02
  1.42603222821E-02  1.45050914184E-02  1.47540445415E-02  1.50072531708E-02
  1.52647900482E-02  1.55267291591E-02  1.57931457535E-02  1.60641163678E-02
  1.63397188466E-02  1.66200323652E-02  1.69051374521E-02  1.71951160126E-02
  1.74900513519E-02  1.77900281992E-02  1.80951327320E-02  1.84054526011E-02
  1.87210769552E-02  1.90420964671E-02  1.93686033596E-02  1.97006914317E-02
  2.00384560860E-02  2.03819943556E-02  2.07314049325E-02  2.10867881956E-02
  2.14482462396E-02  2.18158829044E-02  2.21898038049E-02  2.25701163613E-02
  2.29569298302E-02  2.33503553354E-02  2.37505059006E-02  2.41574964812E-02
  2.45714439978E-02  2.49924673695E-02  2.54206875481E-02  2.58562275531E-02
  2.62992125066E-02  2.67497696696E-02  2.72080284786E-02  2.76741205823E-02
  2.81481798801E-02  2.86303425599E-02  2.91207471379E-02  2.96195344977E-02
  3.01268479313E-02  3.06428331800E-02  3.11676384765E-02  3.17014145871E-02
  3.22443148553E-02  3.27964952459E-02  3.33581143897E-02  3.39293336289E-02
  3.45103170639E-02  3.51012315998E-02  3.57022469950E-02  3.63135359097E-02
  3.69352739552E-02  3.75676397448E-02  3.82108149452E-02  3.88649843279E-02
  3.95303358233E-02  4.02070605739E-02  4.08953529897E-02  4.15954108037E-02
  4.23074351291E-02  4.30316305166E-02  4.37682050135E-02  4.45173702235E-02
  4.52793413672E-02  4.60543373442E-02  4.68425807958E-02  4.76442981692E-02
  4.84597197821E-02  4.92890798896E-02  5.01326167506E-02  5.09905726969E-02
  5.18631942028E-02  5.27507319556E-02  5.36534409275E-02  5.45715804495E-02
  5.55054142852E-02  5.64552107071E-02  5.74212425732E-02  5.84037874060E-02
  5.94031274713E-02  6.04195498604E-02  6.14533465717E-02  6.25048145950E-02
  6.35742559968E-02  6.46619780067E-02  6.57682931064E-02  6.68935191187E-02
  6.80379792993E-02  6.92020024295E-02  7.03859229106E-02  7.15900808600E-02
  7.28148222090E-02  7.40604988021E-02  7.53274684981E-02  7.66160952728E-02
  7.79267493238E-02  7.92598071766E-02  8.06156517931E-02  8.19946726810E-02
  8.33972660063E-02  8.48238347072E-02  8.62747886090E-02  8.77505445428E-02
  8.92515264647E-02  9.07781655777E-02  9.23309004558E-02  9.39101771696E-02
  9.55164494148E-02  9.71501786423E-02  9.88118341909E-02  1.00501893422E-01
  1.02220841857E-01  1.03969173317E-01  1.05747390062E-01  1.07556002942E-01
  1.09395531534E-01  1.11266504301E-01  1.13169458736E-01  1.15104941521E-01
  1.17073508683E-01  1.19075725753E-01  1.21112167930E-01  1.23183420244E-01
  1.25290077725E-01  1.27432745576E-01  1.29612039344E-01  1.31828585097E-01
  1.34083019606E-01  1.36375990527E-01  1.38708156585E-01  1.41080187768E-01
  1.43492765513E-01  1.45946582908E-01  1.48442344887E-01  1.50980768433E-01
  1.53562582787E-01  1.56188529655E-01  1.58859363419E-01  1.61575851359E-01
  1.64338773870E-01  1.67148924684E-01  1.70007111105E-01  1.72914154234E-01
  1.75870889208E-01  1.78878165440E-01  1.81936846863E-01  1.85047812175E-01
  1.88211955098E-01  1.91430184628E-01  1.94703425300E-01  1.98032617454E-01
  2.01418717501E-01  2.04862698203E-01  2.08365548948E-01  2.11928276038E-01
  2.15551902976E-01  2.19237470759E-01  2.22986038180E-01  2.26798682129E-01
  2.30676497905E-01  2.34620599530E-01  2.38632120068E-01  2.42712211952E-01
  2.46862047311E-01  2.51082818315E-01  2.55375737508E-01  2.59742038164E-01
  2.64182974635E-01  2.68699822718E-01  2.73293880015E-01  2.77966466310E-01
  2.82718923947E-01  2.87552618214E-01  2.92468937739E-01  2.97469294885E-01
  3.02555126158E-01  3.07727892618E-01  3.12989080302E-01  3.18340200647E-01
  3.23782790926E-01  3.29318414690E-01  3.34948662216E-01  3.40675150967E-01
  3.46499526050E-01  3.52423460698E-01  3.58448656740E-01  3.64576845100E-01
  3.70809786287E-01  3.77149270906E-01  3.83597120166E-01  3.90155186410E-01
  3.96825353645E-01  4.03609538080E-01  4.10509688679E-01  4.17527787723E-01
  4.24665851375E-01  4.31925930264E-01  4.39310110069E-01  4.46820512122E-01
  4.54459294017E-01  4.62228650227E-01  4.70130812739E-01  4.78168051691E-01
  4.86342676025E-01  4.94657034154E-01  5.03113514632E-01  5.11714546841E-01
  5.20462601693E-01  5.29360192333E-01  5.38409874867E-01  5.47614249095E-01
  5.56975959254E-01  5.66497694783E-01  5.76182191092E-01  5.86032230350E-01
  5.96050642282E-01  6.06240304984E-01  6.16604145750E-01  6.27145141909E-01
  6.37866321686E-01  6.48770765069E-01  6.59861604694E-01  6.71142026743E-01
  6.82615271864E-01  6.94284636098E-01  7.06153471828E-01  7.18225188740E-01
  7.30503254806E-01  7.42991197275E-01  7.55692603693E-01  7.68611122927E-01
  7.81750466218E-01  7.95114408245E-01  8.08706788211E-01  8.22531510942E-01
  8.36592548014E-01  8.50893938891E-01  8.65439792086E-01  8.80234286341E-01
  8.95281671828E-01  9.10586271369E-01  9.26152481681E-01  9.41984774633E-01
  9.58087698537E-01  9.74465879452E-01  9.91124022513E-01  1.00806691328E+00
  1.02529941912E+00  1.04282649060E+00  1.06065316290E+00  1.07878455729E+00
  1.09722588255E+00  1.11598243654E+00  1.13505960764E+00  1.15446287636E+00
  1.17419781688E+00  1.19427009866E+00  1.21468548808E+00  1.23544985010E+00
  1.25656914991E+00  1.27804945467E+00  1.29989693526E+00  1.32211786804E+00
  1.34471863666E+00  1.36770573388E+00  1.39108576344E+00  1.41486544197E+00
  1.43905160093E+00  1.46365118851E+00  1.48867127172E+00  1.51411903833E+00
  1.54000179899E+00  1.56632698933E+00  1.59310217205E+00  1.62033503916E+00
  1.64803341412E+00  1.67620525414E+00  1.70485865246E+00  1.73400184063E+00
  1.76364319092E+00  1.79379121874E+00  1.82445458501E+00  1.85564209874E+00
  1.88736271948E+00  1.91962555997E+00  1.95243988870E+00  1.98581513257E+00
  2.01976087966E+00  2.05428688192E+00  2.08940305800E+00  2.12511949611E+00
  2.16144645688E+00  2.19839437634E+00  2.23597386893E+00  2.27419573049E+00
  2.31307094143E+00  2.35261066985E+00  2.39282627475E+00  2.43372930928E+00
  2.47533152411E+00  2.51764487074E+00  2.56068150497E+00  2.60445379040E+00
  2.64897430197E+00  2.69425582955E+00  2.74031138164E+00  2.78715418912E+00
  2.83479770902E+00  2.88325562841E+00  2.93254186829E+00  2.98267058766E+00
  3.03365618753E+00  3.08551331508E+00  3.13825686784E+00  3.19190199803E+00
  3.24646411686E+00  3.30195889895E+00  3.35840228690E+00  3.41581049579E+00
  3.47420001790E+00  3.53358762739E+00  3.59399038519E+00  3.65542564383E+00
  3.71791105248E+00  3.78146456198E+00  3.84610443003E+00  3.91184922642E+00
  3.97871783834E+00  4.04672947587E+00  4.11590367741E+00  4.18626031540E+00
  4.25781960192E+00  4.33060209457E+00  4.40462870236E+00  4.47992069169E+00
  4.55649969251E+00  4.63438770447E+00  4.71360710329E+00  4.79418064718E+00
  4.87613148334E+00  4.95948315469E+00  5.04425960652E+00  5.13048519349E+00
  5.21818468652E+00  5.30738328000E+00  5.39810659894E+00  5.49038070641E+00
  5.58423211097E+00  5.67968777430E+00  5.77677511898E+00  5.87552203632E+00
  5.97595689441E+00  6.07810854622E+00  6.18200633795E+00  6.28768011744E+00
  6.39516024270E+00  6.50447759071E+00  6.61566356621E+00  6.72875011080E+00
  6.84376971203E+00  6.96075541283E+00  7.07974082092E+00  7.20076011850E+00
  7.32384807207E+00  7.44904004243E+00  7.57637199481E+00  7.70588050920E+00
  7.83760279090E+00  7.97157668118E+00  8.10784066813E+00  8.24643389777E+00
  8.38739618524E+00  8.53076802629E+00  8.67659060888E+00  8.82490582500E+00
  8.97575628275E+00  9.12918531854E+00  9.28523700958E+00  9.44395618648E+00
  9.60538844620E+00  9.76958016511E+00  9.93657851230E+00  1.01064314632E+01
  1.02791878132E+01  1.04548971919E+01  1.06336100772E+01  1.08153778099E+01
  1.10002526083E+01  1.11882875834E+01  1.13795367539E+01  1.15740550621E+01
  1.17718983894E+01  1.19731235721E+01  1.21777884186E+01  1.23859517249E+01
  1.25976732925E+01  1.28130139448E+01  1.30320355450E+01  1.32548010138E+01
  1.34813743473E+01  1.37118206358E+01  1.39462060820E+01  1.41845980203E+01
  1.44270649361E+01  1.46736764854E+01  1.49245035150E+01  1.51796180825E+01
  1.54390934776E+01  1.57030042424E+01  1.59714261935E+01  1.62444364431E+01
  1.65221134220E+01  1.68045369013E+01  1.70917880158E+01  1.73839492872E+01
  1.76811046478E+01  1.79833394646E+01  1.82907405638E+01  1.86033962558E+01
  1.89213963604E+01  1.92448322331E+01  1.95737967906E+01  1.99083845381E+01
  2.02486915962E+01  2.05948157285E+01  2.09468563698E+01  2.13049146546E+01
  2.16690934460E+01  2.20394973656E+01  2.24162328233E+01  2.27994080478E+01
  2.31891331181E+01  2.35855199945E+01  2.39886825514E+01  2.43987366095E+01
  2.48157999694E+01  2.52399924455E+01  2.56714358999E+01  2.61102542780E+01
  2.65565736439E+01  2.70105222164E+01  2.74722304063E+01  2.79418308533E+01
  2.84194584646E+01  2.89052504533E+01  2.93993463781E+01  2.99018881831E+01
  3.04130202389E+01  3.09328893839E+01  3.14616449664E+01  3.19994388876E+01
  3.25464256454E+01  3.31027623784E+01  3.36686089114E+01  3.42441278012E+01
  3.48294843833E+01  3.54248468191E+01  3.60303861449E+01  3.66462763204E+01
  3.72726942789E+01  3.79098199781E+01  3.85578364520E+01  3.92169298632E+01
  3.98872895563E+01  4.05691081129E+01  4.12625814061E+01  4.19679086574E+01
  4.26852924938E+01  4.34149390056E+01  4.41570578063E+01  4.49118620921E+01
  4.56795687038E+01  4.64603981886E+01  4.72545748637E+01  4.80623268807E+01
  4.88838862911E+01  4.97194891131E+01  5.05693753991E+01  5.14337893051E+01
  5.23129791604E+01  5.32071975393E+01  5.41167013333E+01  5.50417518255E+01
  5.59826147647E+01  5.69395604429E+01  5.79128637718E+01  5.89028043629E+01
  5.99096666067E+01  6.09337397555E+01  6.19753180054E+01  6.30347005820E+01
  6.41121918252E+01  6.52081012774E+01  6.63227437723E+01  6.74564395250E+01
  6.86095142244E+01  6.97822991265E+01  7.09751311498E+01  7.21883529717E+01
  7.34223131276E+01  7.46773661101E+01  7.59538724719E+01  7.72521989284E+01
  7.85727184636E+01  7.99158104375E+01  8.12818606941E+01  8.26712616735E+01
  8.40844125235E+01  8.55217192150E+01  8.69835946586E+01  8.84704588226E+01
  8.99827388544E+01  9.15208692028E+01  9.30852917429E+01  9.46764559030E+01
  9.62948187937E+01  9.79408453395E+01  9.96150084118E+01  1.01317788965E+02
  1.03049676176E+02  1.04811167582E+02  1.06602769224E+02  1.08424995797E+02
  1.10278370789E+02  1.12163426641E+02  1.14080704891E+02  1.16030756338E+02
  1.18014141192E+02  1.20031429242E+02  1.22083200017E+02  1.24170042949E+02
  1.26292557548E+02  1.28451353573E+02  1.30647051203E+02  1.32880281219E+02
  1.35151685186E+02  1.37461915633E+02  1.39811636246E+02  1.42201522054E+02
  1.44632259624E+02  1.47104547260E+02  1.49619095203E+02  1.52176625834E+02
  1.54777873882E+02  1.57423586634E+02  1.60114524154E+02  1.62851459496E+02
  1.65635178927E+02  1.68466482157E+02  1.71346182564E+02  1.74275107430E+02
  1.77254098180E+02  1.80284010619E+02  1.83365715183E+02  1.86500097185E+02
  1.89688057073E+02  1.92930510686E+02  1.96228389519E+02  1.99582640987E+02
  2.02994228704E+02
  </PP_R>
  <PP_RAB>
  1.00030354183E-06  1.01740233485E-06  1.03479340786E-06  1.05248175699E-06
  1.07047246377E-06  1.08877069657E-06  1.10738171213E-06  1.12631085702E-06
  1.14556356923E-06  1.16514537968E-06  1.18506191385E-06  1.20531889338E-06
  1.22592213770E-06  1.24687756573E-06  1.26819119756E-06  1.28986915618E-06
  1.31191766925E-06  1.33434307087E-06  1.35715180344E-06  1.38035041946E-06
  1.40394558345E-06  1.42794407383E-06  1.45235278491E-06  1.47717872885E-06
  1.50242903765E-06  1.52811096523E-06  1.55423188953E-06  1.58079931458E-06
  1.60782087268E-06  1.63530432660E-06  1.66325757181E-06  1.69168863873E-06
  1.72060569507E-06  1.75001704812E-06  1.77993114721E-06  1.81035658608E-06
  1.84130210536E-06  1.87277659511E-06  1.90478909733E-06  1.93734880860E-06
  1.97046508269E-06  2.00414743327E-06  2.03840553663E-06  2.07324923445E-06
  2.10868853666E-06  2.14473362428E-06  2.18139485236E-06  2.21868275298E-06
  2.25660803822E-06  2.29518160328E-06  2.33441452960E-06  2.37431808804E-06
  2.41490374213E-06  2.45618315133E-06  2.49816817442E-06  2.54087087288E-06
  2.58430351438E-06  2.62847857627E-06  2.67340874919E-06  2.71910694071E-06
  2.76558627904E-06  2.81286011679E-06  2.86094203482E-06  2.90984584614E-06
  2.95958559986E-06  3.01017558525E-06  3.06163033584E-06  3.11396463358E-06
  3.16719351310E-06  3.22133226602E-06  3.27639644538E-06  3.33240187003E-06
  3.38936462925E-06  3.44730108734E-06  3.50622788833E-06  3.56616196074E-06
  3.62712052248E-06  3.68912108575E-06  3.75218146212E-06  3.81631976762E-06
  3.88155442794E-06  3.94790418374E-06  4.01538809601E-06  4.08402555158E-06
  4.15383626867E-06  4.22484030253E-06  4.29705805126E-06  4.37051026161E-06
  4.44521803499E-06  4.52120283349E-06  4.59848648608E-06  4.67709119485E-06
  4.75703954141E-06  4.83835449338E-06  4.92105941097E-06  5.00517805371E-06
  5.09073458724E-06  5.17775359031E-06  5.26626006179E-06  5.35627942789E-06
  5.44783754941E-06  5.54096072924E-06  5.63567571987E-06  5.73200973107E-06
  5.82999043776E-06  5.92964598788E-06  6.03100501054E-06  6.13409662425E-06
  6.23895044521E-06  6.34559659591E-06  6.45406571371E-06  6.56438895971E-06
  6.67659802762E-06  6.79072515295E-06  6.90680312222E-06  7.02486528236E-06
  7.14494555037E-06  7.26707842297E-06  7.39129898658E-06  7.51764292735E-06
  7.64614654147E-06  7.77684674553E-06  7.90978108718E-06  8.04498775586E-06
  8.18250559386E-06  8.32237410737E-06  8.46463347791E-06  8.60932457386E-06
  8.75648896216E-06  8.90616892029E-06  9.05840744842E-06  9.21324828171E-06
  9.37073590295E-06  9.53091555529E-06  9.69383325523E-06  9.85953580588E-06
  1.00280708104E-05  1.01994866856E-05  1.03738326759E-05  1.05511588677E-05
  1.07315162032E-05  1.09149564956E-05  1.11015324438E-05  1.12912976475E-05
  1.14843066225E-05  1.16806148166E-05  1.18802786252E-05  1.20833554080E-05
  1.22899035051E-05  1.24999822535E-05  1.27136520050E-05  1.29309741427E-05
  1.31520110990E-05  1.33768263736E-05  1.36054845516E-05  1.38380513220E-05
  1.40745934968E-05  1.43151790299E-05  1.45598770370E-05  1.48087578150E-05
  1.50618928625E-05  1.53193549004E-05  1.55812178925E-05  1.58475570670E-05
  1.61184489380E-05  1.63939713275E-05  1.66742033877E-05  1.69592256239E-05
  1.72491199174E-05  1.75439695493E-05  1.78438592241E-05  1.81488750944E-05
  1.84591047853E-05  1.87746374199E-05  1.90955636444E-05  1.94219756549E-05
  1.97539672231E-05  2.00916337239E-05  2.04350721623E-05  2.07843812014E-05
  2.11396611911E-05  2.15010141964E-05  2.18685440269E-05  2.22423562670E-05
  2.26225583057E-05  2.30092593676E-05  2.34025705444E-05  2.38026048269E-05
  2.42094771372E-05  2.46233043618E-05  2.50442053853E-05  2.54723011243E-05
  2.59077145625E-05  2.63505707858E-05  2.68009970182E-05  2.72591226584E-05
  2.77250793170E-05  2.81990008544E-05  2.86810234191E-05  2.91712854869E-05
  2.96699279004E-05  3.01770939101E-05  3.06929292150E-05  3.12175820044E-05
  3.17512030011E-05  3.22939455040E-05  3.28459654325E-05  3.34074213713E-05
  3.39784746158E-05  3.45592892185E-05  3.51500320363E-05  3.57508727781E-05
  3.63619840539E-05  3.69835414240E-05  3.76157234499E-05  3.82587117452E-05
  3.89126910282E-05  3.95778491742E-05  4.02543772705E-05  4.09424696703E-05
  4.16423240495E-05  4.23541414625E-05  4.30781264008E-05  4.38144868512E-05
  4.45634343558E-05  4.53251840728E-05  4.60999548381E-05  4.68879692283E-05
  4.76894536248E-05  4.85046382785E-05  4.93337573761E-05  5.01770491076E-05
  5.10347557343E-05  5.19071236588E-05  5.27944034955E-05  5.36968501426E-05
  5.46147228558E-05  5.55482853219E-05  5.64978057356E-05  5.74635568755E-05
  5.84458161834E-05  5.94448658433E-05  6.04609928628E-05  6.14944891556E-05
  6.25456516252E-05  6.36147822502E-05  6.47021881711E-05  6.58081817786E-05
  6.69330808033E-05  6.80772084069E-05  6.92408932752E-05  7.04244697122E-05
  7.16282777366E-05  7.28526631791E-05  7.40979777820E-05  7.53645793000E-05
  7.66528316033E-05  7.79631047818E-05  7.92957752517E-05  8.06512258634E-05
  8.20298460116E-05  8.34320317472E-05  8.48581858910E-05  8.63087181496E-05
  8.77840452327E-05  8.92845909734E-05  9.08107864493E-05  9.23630701069E-05
  9.39418878872E-05  9.55476933541E-05  9.71809478243E-05  9.88421205003E-05
  1.00531688605E-04  1.02250137518E-04  1.03997960917E-04  1.05775660918E-04
  1.07583748220E-04  1.09422742250E-04  1.11293171317E-04  1.13195572759E-04
  1.15130493098E-04  1.17098488199E-04  1.19100123431E-04  1.21135973823E-04
  1.23206624237E-04  1.25312669529E-04  1.27454714727E-04  1.29633375197E-04
  1.31849276828E-04  1.34103056205E-04  1.36395360795E-04  1.38726849132E-04
  1.41098191009E-04  1.43510067666E-04  1.45963171988E-04  1.48458208705E-04
  1.50995894593E-04  1.53576958679E-04  1.56202142453E-04  1.58872200081E-04
  1.61587898617E-04  1.64350018230E-04  1.67159352422E-04  1.70016708262E-04
  1.72922906612E-04  1.75878782367E-04  1.78885184693E-04  1.81942977270E-04
  1.85053038545E-04  1.88216261976E-04  1.91433556298E-04  1.94705845775E-04
  1.98034070475E-04  2.01419186530E-04  2.04862166421E-04  2.08363999247E-04
  2.11925691019E-04  2.15548264940E-04  2.19232761707E-04  2.22980239805E-04
  2.26791775810E-04  2.30668464704E-04  2.34611420184E-04  2.38621774985E-04
  2.42700681204E-04  2.46849310633E-04  2.51068855092E-04  2.55360526775E-04
  2.59725558596E-04  2.64165204543E-04  2.68680740042E-04  2.73273462319E-04
  2.77944690773E-04  2.82695767358E-04  2.87528056967E-04  2.92442947823E-04
  2.97441851879E-04  3.02526205223E-04  3.07697468492E-04  3.12957127289E-04
  3.18306692612E-04  3.23747701289E-04  3.29281716416E-04  3.34910327808E-04
  3.40635152457E-04  3.46457834993E-04  3.52380048161E-04  3.58403493298E-04
  3.64529900823E-04  3.70761030735E-04  3.77098673116E-04  3.83544648649E-04
  3.90100809138E-04  3.96769038040E-04  4.03551251009E-04  4.10449396443E-04
  4.17465456047E-04  4.24601445397E-04  4.31859414527E-04  4.39241448509E-04
  4.46749668060E-04  4.54386230146E-04  4.62153328603E-04  4.70053194768E-04
  4.78088098120E-04  4.86260346931E-04  4.94572288930E-04  5.03026311977E-04
  5.11624844750E-04  5.20370357441E-04  5.29265362465E-04  5.38312415187E-04
  5.47514114648E-04  5.56873104320E-04  5.66392072859E-04  5.76073754880E-04
  5.85920931743E-04  5.95936432352E-04  6.06123133966E-04  6.16483963028E-04
  6.27021896002E-04  6.37739960234E-04  6.48641234816E-04  6.59728851473E-04
  6.71005995462E-04  6.82475906489E-04  6.94141879638E-04  7.06007266317E-04
  7.18075475221E-04  7.30349973314E-04  7.42834286822E-04  7.55532002245E-04
  7.68446767393E-04  7.81582292427E-04  7.94942350929E-04  8.08530780986E-04
  8.22351486290E-04  8.36408437263E-04  8.50705672195E-04  8.65247298405E-04
  8.80037493421E-04  8.95080506178E-04  9.10380658245E-04  9.25942345058E-04
  9.41770037189E-04  9.57868281628E-04  9.74241703088E-04  9.90895005338E-04
  1.00783297255E-03  1.02506047067E-03  1.04258244883E-03  1.06040394075E-03
  1.07853006620E-03  1.09696603247E-03  1.11571713585E-03  1.13478876318E-03
  1.15418639336E-03  1.17391559896E-03  1.19398204779E-03  1.21439150456E-03
  1.23514983251E-03  1.25626299510E-03  1.27773705775E-03  1.29957818952E-03
  1.32179266496E-03  1.34438686586E-03  1.36736728309E-03  1.39074051847E-03
  1.41451328670E-03  1.43869241722E-03  1.46328485624E-03  1.48829766867E-03
  1.51373804023E-03  1.53961327944E-03  1.56593081974E-03  1.59269822167E-03
  1.61992317498E-03  1.64761350087E-03  1.67577715423E-03  1.70442222595E-03
  1.73355694519E-03  1.76318968179E-03  1.79332894867E-03  1.82398340425E-03
  1.85516185497E-03  1.88687325779E-03  1.91912672279E-03  1.95193151576E-03
  1.98529706088E-03  2.01923294342E-03  2.05374891252E-03  2.08885488394E-03
  2.12456094295E-03  2.16087734720E-03  2.19781452970E-03  2.23538310179E-03
  2.27359385618E-03  2.31245777010E-03  2.35198600838E-03  2.39218992673E-03
  2.43308107495E-03  2.47467120029E-03  2.51697225077E-03  2.55999637868E-03
  2.60375594401E-03  2.64826351803E-03  2.69353188692E-03  2.73957405540E-03
  2.78640325049E-03  2.83403292531E-03  2.88247676296E-03  2.93174868040E-03
  2.98186283250E-03  3.03283361609E-03  3.08467567409E-03  3.13740389973E-03
  3.19103344079E-03  3.24557970401E-03  3.30105835948E-03  3.35748534513E-03
  3.41487687135E-03  3.47324942562E-03  3.53261977724E-03  3.59300498216E-03
  3.65442238788E-03  3.71688963844E-03  3.78042467947E-03  3.84504576335E-03
  3.91077145448E-03  3.97762063457E-03  4.04561250809E-03  4.11476660781E-03
  4.18510280034E-03  4.25664129193E-03  4.32940263419E-03  4.40340773005E-03
  4.47867783974E-03  4.55523458690E-03  4.63309996482E-03  4.71229634270E-03
  4.79284647213E-03  4.87477349361E-03  4.95810094319E-03  5.04285275922E-03
  5.12905328926E-03  5.21672729707E-03  5.30589996967E-03  5.39659692467E-03
  5.48884421753E-03  5.58266834913E-03  5.67809627331E-03  5.77515540467E-03
  5.87387362643E-03  5.97427929842E-03  6.07640126524E-03  6.18026886456E-03
  6.28591193553E-03  6.39336082736E-03  6.50264640805E-03  6.61380007321E-03
  6.72685375515E-03  6.84183993201E-03  6.95879163708E-03  7.07774246833E-03
  7.19872659804E-03  7.32177878259E-03  7.44693437250E-03  7.57422932256E-03
  7.70370020213E-03  7.83538420570E-03  7.96931916353E-03  8.10554355254E-03
  8.24409650736E-03  8.38501783158E-03  8.52834800917E-03  8.67412821611E-03
  8.82240033223E-03  8.97320695325E-03  9.12659140298E-03  9.28259774582E-03
  9.44127079937E-03  9.60265614732E-03  9.76680015256E-03  9.93374997049E-03
  1.01035535626E-02  1.02762597101E-02  1.04519180281E-02  1.06305789800E-02
  1.08122938914E-02  1.09971149657E-02  1.11850952984E-02  1.13762888924E-02
  1.15707506741E-02  1.17685365086E-02  1.19697032159E-02  1.21743085873E-02
  1.23824114019E-02  1.25940714438E-02  1.28093495187E-02  1.30283074718E-02
  1.32510082055E-02  1.34775156975E-02  1.37078950190E-02  1.39422123534E-02
  1.41805350156E-02  1.44229314712E-02  1.46694713558E-02  1.49202254958E-02
  1.51752659277E-02  1.54346659200E-02  1.56984999930E-02  1.59668439414E-02
  1.62397748550E-02  1.65173711417E-02  1.67997125495E-02  1.70868801896E-02
  1.73789565598E-02  1.76760255679E-02  1.79781725561E-02  1.82854843253E-02
  1.85980491604E-02  1.89159568551E-02  1.92392987382E-02  1.95681676995E-02