<PP_INFO>
Generated using Vanderbilt code, version   7  3  6                              
Author: unknown    Generation date:   21    7   16                              
Automatically converted from original format                                    
    1        The Pseudo was generated with a Scalar-Relativistic Calculation
  2.01599459444E+00    Local Potential cutoff radius
nl pn  l   occ               Rcut            Rcut US             E pseu
3D  3  2  8.00      1.20000000000      2.00000000000     -0.65224029637
4S  4  0  2.00      1.20000000000      2.03000000000     -0.41475522650
4P  4  1  0.00      1.20000000000      2.22802202189     -0.09003586698
</PP_INFO>


<PP_HEADER>
   0                   Version Number
  Ni                   Element
   US                  Ultrasoft pseudopotential
    T                  Nonlinear Core Correction
SLA  PW   PBE  PBE     PBE  Exchange-Correlation functional
   10.00000000000      Z valence
  -95.38568510243      Total energy
    0.00000    0.00000 Suggested cutoff for wfc and rho
    2                  Max angular momentum component
  939                  Number of points in mesh
    3    3             Number of Wavefunctions, Number of Projectors
 Wavefunctions         nl  l   occ
                       3D  2  8.00
                       4S  0  2.00
                       4P  1  0.00
</PP_HEADER>


<PP_MESH>
  <PP_R>
  0.00000000000E+00  5.47335342371E-07  1.10386938334E-06  1.66975671927E-06
  2.24515454473E-06  2.83022269615E-06  3.42512369621E-06  4.03002279904E-06
  4.64508803603E-06  5.27049026261E-06  5.90640320563E-06  6.55300351167E-06
  7.21047079608E-06  7.87898769289E-06  8.55873990554E-06  9.24991625845E-06
  9.95270874951E-06  1.06673126034E-05  1.13939263257E-05  1.21327517583E-05
  1.28839941352E-05  1.36478621397E-05  1.44245679622E-05  1.52143273595E-05
  1.60173597140E-05  1.68338880957E-05  1.76641393231E-05  1.85083440269E-05
  1.93667367139E-05  2.02395558320E-05  2.11270438365E-05  2.20294472577E-05
  2.29470167689E-05  2.38800072565E-05  2.48286778904E-05  2.57932921965E-05
  2.67741181293E-05  2.77714281467E-05  2.87854992858E-05  2.98166132395E-05
  3.08650564350E-05  3.19311201132E-05  3.30151004098E-05  3.41172984374E-05
  3.52380203692E-05  3.63775775240E-05  3.75362864529E-05  3.87144690269E-05
  3.99124525265E-05  4.11305697325E-05  4.23691590188E-05  4.36285644458E-05
  4.49091358566E-05  4.62112289735E-05  4.75352054975E-05  4.88814332085E-05
  5.02502860671E-05  5.16421443191E-05  5.30573946008E-05  5.44964300463E-05
  5.59596503969E-05  5.74474621121E-05  5.89602784826E-05  6.04985197448E-05
  6.20626131979E-05  6.36529933223E-05  6.52701019005E-05  6.69143881398E-05
  6.85863087968E-05  7.02863283048E-05  7.20149189023E-05  7.37725607645E-05
  7.55597421365E-05  7.73769594691E-05  7.92247175566E-05  8.11035296770E-05
  8.30139177346E-05  8.49564124051E-05  8.69315532827E-05  8.89398890306E-05
  9.09819775325E-05  9.30583860485E-05  9.51696913720E-05  9.73164799903E-05
  9.94993482474E-05  1.01718902510E-04  1.03975759334E-04  1.06270545640E-04
  1.08603898883E-04  1.10976467231E-04  1.13388909747E-04  1.15841896568E-04
  1.18336109097E-04  1.20872240186E-04  1.23450994331E-04  1.26073087871E-04
  1.28739249181E-04  1.31450218878E-04  1.34206750029E-04  1.37009608352E-04
  1.39859572438E-04  1.42757433963E-04  1.45703997906E-04  1.48700082775E-04
  1.51746520837E-04  1.54844158344E-04  1.57993855770E-04  1.61196488051E-04
  1.64452944829E-04  1.67764130695E-04  1.71130965445E-04  1.74554384332E-04
  1.78035338328E-04  1.81574794386E-04  1.85173735713E-04  1.88833162037E-04
  1.92554089888E-04  1.96337552882E-04  2.00184602006E-04  2.04096305907E-04
  2.08073751198E-04  2.12118042747E-04  2.16230303997E-04  2.20411677268E-04
  2.24663324079E-04  2.28986425472E-04  2.33382182335E-04  2.37851815740E-04
  2.42396567280E-04  2.47017699417E-04  2.51716495827E-04  2.56494261762E-04
  2.61352324409E-04  2.66292033263E-04  2.71314760496E-04  2.76421901342E-04
  2.81614874484E-04  2.86895122449E-04  2.92264112005E-04  2.97723334574E-04
  3.03274306641E-04  3.08918570178E-04  3.14657693073E-04  3.20493269564E-04
  3.26426920681E-04  3.32460294700E-04  3.38595067595E-04  3.44832943511E-04
  3.51175655230E-04  3.57624964657E-04  3.64182663310E-04  3.70850572813E-04
  3.77630545406E-04  3.84524464459E-04  3.91534244992E-04  3.98661834214E-04
  4.05909212054E-04  4.13278391721E-04  4.20771420256E-04  4.28390379104E-04
  4.36137384692E-04  4.44014589016E-04  4.52024180237E-04  4.60168383295E-04
  4.68449460521E-04  4.76869712266E-04  4.85431477544E-04  4.94137134678E-04
  5.02989101962E-04  5.11989838332E-04  5.21141844052E-04  5.30447661404E-04
  5.39909875396E-04  5.49531114483E-04  5.59314051293E-04  5.69261403371E-04
  5.79375933935E-04  5.89660452641E-04  6.00117816366E-04  6.10750930001E-04
  6.21562747256E-04  6.32556271485E-04  6.43734556514E-04  6.55100707494E-04
  6.66657881763E-04  6.78409289721E-04  6.90358195723E-04  7.02507918988E-04
  7.14861834516E-04  7.27423374029E-04  7.40196026926E-04  7.53183341248E-04
  7.66388924665E-04  7.79816445479E-04  7.93469633645E-04  8.07352281802E-04
  8.21468246330E-04  8.35821448422E-04  8.50415875171E-04  8.65255580677E-04
  8.80344687177E-04  8.95687386186E-04  9.11287939663E-04  9.27150681197E-04
  9.43280017205E-04  9.59680428163E-04  9.76356469847E-04  9.93312774596E-04
  1.01055405261E-03  1.02808509323E-03  1.04591076631E-03  1.06403602355E-03
  1.08246589985E-03  1.10120551473E-03  1.12026007378E-03  1.13963487004E-03
  1.15933528553E-03  1.17936679271E-03  1.19973495601E-03  1.22044543340E-03
  1.24150397792E-03  1.26291643929E-03  1.28468876556E-03  1.30682700474E-03
  1.32933730648E-03  1.35222592379E-03  1.37549921477E-03  1.39916364436E-03
  1.42322578617E-03  1.44769232429E-03  1.47257005513E-03  1.49786588934E-03
  1.52358685369E-03  1.54974009307E-03  1.57633287243E-03  1.60337257882E-03
  1.63086672346E-03  1.65882294377E-03  1.68724900556E-03  1.71615280513E-03
  1.74554237151E-03  1.77542586865E-03  1.80581159772E-03  1.83670799939E-03
  1.86812365619E-03  1.90006729490E-03  1.93254778896E-03  1.96557416093E-03
  1.99915558502E-03  2.03330138962E-03  2.06802105989E-03  2.10332424041E-03
  2.13922073785E-03  2.17572052368E-03  2.21283373697E-03  2.25057068718E-03
  2.28894185705E-03  2.32795790548E-03  2.36762967051E-03  2.40796817232E-03
  2.44898461633E-03  2.49069039625E-03  2.53309709728E-03  2.57621649934E-03
  2.62006058031E-03  2.66464151940E-03  2.70997170048E-03  2.75606371556E-03
  2.80293036827E-03  2.85058467743E-03  2.89903988066E-03  2.94830943803E-03
  2.99840703587E-03  3.04934659049E-03  3.10114225210E-03  3.15380840870E-03
  3.20735969014E-03  3.26181097210E-03  3.31717738030E-03  3.37347429464E-03
  3.43071735353E-03  3.48892245818E-03  3.54810577704E-03  3.60828375032E-03
  3.66947309450E-03  3.73169080701E-03  3.79495417096E-03  3.85928075990E-03
  3.92468844274E-03  3.99119538872E-03  4.05882007240E-03  4.12758127886E-03
  4.19749810887E-03  4.26858998422E-03  4.34087665312E-03  4.41437819566E-03
  4.48911502941E-03  4.56510791508E-03  4.64237796229E-03  4.72094663545E-03
  4.80083575968E-03  4.88206752693E-03  4.96466450210E-03  5.04864962932E-03
  5.13404623834E-03  5.22087805098E-03  5.30916918775E-03  5.39894417454E-03
  5.49022794942E-03  5.58304586957E-03  5.67742371836E-03  5.77338771246E-03
  5.87096450914E-03  5.97018121371E-03  6.07106538700E-03  6.17364505303E-03
  6.27794870682E-03  6.38400532228E-03  6.49184436026E-03  6.60149577673E-03
  6.71299003114E-03  6.82635809483E-03  6.94163145965E-03  7.05884214672E-03
  7.17802271533E-03  7.29920627194E-03  7.42242647945E-03  7.54771756647E-03
  7.67511433690E-03  7.80465217954E-03  7.93636707796E-03  8.07029562048E-03
  8.20647501034E-03  8.34494307601E-03  8.48573828174E-03  8.62889973822E-03
  8.77446721343E-03  8.92248114373E-03  9.07298264503E-03  9.22601352430E-03
  9.38161629108E-03  9.53983416936E-03  9.70071110959E-03  9.86429180082E-03
  1.00306216832E-02  1.01997469605E-02  1.03717146131E-02  1.05465724109E-02
  1.07243689267E-02  1.09051535494E-02  1.10889764982E-02  1.12758888362E-02
  1.14659424847E-02  1.16591902376E-02  1.18556857762E-02  1.20554836836E-02
  1.22586394607E-02  1.24652095409E-02  1.26752513061E-02  1.28888231027E-02
  1.31059842574E-02  1.33267950942E-02  1.35513169508E-02  1.37796121960E-02
  1.40117442465E-02  1.42477775850E-02  1.44877777777E-02  1.47318114929E-02
  1.49799465194E-02  1.52322517851E-02  1.54887973765E-02  1.57496545578E-02
  1.60148957911E-02  1.62845947562E-02  1.65588263713E-02  1.68376668134E-02
  1.71211935402E-02  1.74094853107E-02  1.77026222081E-02  1.80006856609E-02
  1.83037584667E-02  1.86119248141E-02  1.89252703070E-02  1.92438819878E-02
  1.95678483617E-02  1.98972594216E-02  2.02322066726E-02  2.05727831577E-02
  2.09190834837E-02  2.12712038475E-02  2.16292420624E-02  2.19932975858E-02
  2.23634715467E-02  2.27398667734E-02  2.31225878227E-02  2.35117410084E-02
  2.39074344311E-02  2.43097780082E-02  2.47188835043E-02  2.51348645626E-02
  2.55578367360E-02  2.59879175195E-02  2.64252263827E-02  2.68698848032E-02
  2.73220163000E-02  2.77817464681E-02  2.82492030133E-02  2.87245157876E-02
  2.92078168254E-02  2.96992403802E-02  3.01989229616E-02  3.07070033736E-02
  3.12236227528E-02  3.17489246079E-02  3.22830548597E-02  3.28261618808E-02
  3.33783965381E-02  3.39399122334E-02  3.45108649470E-02  3.50914132806E-02
  3.56817185012E-02  3.62819445865E-02  3.68922582696E-02  3.75128290861E-02
  3.81438294208E-02  3.87854345556E-02  3.94378227182E-02  4.01011751319E-02
  4.07756760654E-02  4.14615128844E-02  4.21588761036E-02  4.28679594394E-02
  4.35889598641E-02  4.43220776601E-02  4.50675164760E-02  4.58254833829E-02
  4.65961889321E-02  4.73798472134E-02  4.81766759147E-02  4.89868963823E-02
  4.98107336829E-02  5.06484166653E-02  5.15001780246E-02  5.23662543668E-02
  5.32468862741E-02  5.41423183722E-02  5.50527993980E-02  5.59785822687E-02
  5.69199241522E-02  5.78770865384E-02  5.88503353119E-02  5.98399408259E-02
  6.08461779770E-02  6.18693262822E-02  6.29096699558E-02  6.39674979889E-02
  6.50431042295E-02  6.61367874638E-02  6.72488515000E-02  6.83796052517E-02
  6.95293628246E-02  7.06984436031E-02  7.18871723395E-02  7.30958792437E-02
  7.43249000755E-02  7.55745762374E-02  7.68452548698E-02  7.81372889471E-02
  7.94510373760E-02  8.07868650950E-02  8.21451431760E-02  8.35262489272E-02
  8.49305659979E-02  8.63584844853E-02  8.78104010425E-02  8.92867189892E-02
  9.07878484229E-02  9.23142063339E-02  9.38662167203E-02  9.54443107059E-02
  9.70489266605E-02  9.86805103209E-02  1.00339514915E-01  1.02026401289E-01
  1.03741638033E-01  1.05485701612E-01  1.07259076499E-01  1.09062255311E-01
  1.10895738942E-01  1.12760036704E-01  1.14655666471E-01  1.16583154818E-01
  1.18543037170E-01  1.20535857953E-01  1.22562170741E-01  1.24622538411E-01
  1.26717533300E-01  1.28847737366E-01  1.31013742345E-01  1.33216149919E-01
  1.35455571883E-01  1.37732630312E-01  1.40047957737E-01  1.42402197320E-01
  1.44796003031E-01  1.47230039832E-01  1.49704983860E-01  1.52221522614E-01
  1.54780355151E-01  1.57382192272E-01  1.60027756728E-01  1.62717783413E-01
  1.65453019577E-01  1.68234225022E-01  1.71062172326E-01  1.73937647046E-01
  1.76861447944E-01  1.79834387206E-01  1.82857290668E-01  1.85930998043E-01
  1.89056363161E-01  1.92234254197E-01  1.95465553920E-01  1.98751159934E-01
  2.02091984928E-01  2.05488956930E-01  2.08943019566E-01  2.12455132320E-01
  2.16026270802E-01  2.19657427016E-01  2.23349609642E-01  2.27103844308E-01
  2.30921173883E-01  2.34802658760E-01  2.38749377154E-01  2.42762425401E-01
  2.46842918263E-01  2.50991989237E-01  2.55210790867E-01  2.59500495072E-01
  2.63862293463E-01  2.68297397679E-01  2.72807039721E-01  2.77392472298E-01
  2.82054969169E-01  2.86795825504E-01  2.91616358236E-01  2.96517906434E-01
  3.01501831670E-01  3.06569518400E-01  3.11722374348E-01  3.16961830896E-01
  3.22289343481E-01  3.27706392003E-01  3.33214481232E-01  3.38815141228E-01
  3.44509927767E-01  3.50300422770E-01  3.56188234745E-01  3.62174999233E-01
  3.68262379263E-01  3.74452065813E-01  3.80745778280E-01  3.87145264958E-01
  3.93652303524E-01  4.00268701530E-01  4.06996296906E-01  4.13836958473E-01
  4.20792586459E-01  4.27865113026E-01  4.35056502812E-01  4.42368753470E-01
  4.49803896229E-01  4.57363996453E-01  4.65051154220E-01  4.72867504900E-01
  4.80815219751E-01  4.88896506525E-01  4.97113610073E-01  5.05468812979E-01
  5.13964436185E-01  5.22602839642E-01  5.31386422961E-01  5.40317626083E-01
  5.49398929956E-01  5.58632857222E-01  5.68021972921E-01  5.77568885200E-01
  5.87276246040E-01  5.97146751995E-01  6.07183144933E-01  6.17388212807E-01
  6.27764790424E-01  6.38315760232E-01  6.49044053124E-01  6.59952649252E-01
  6.71044578850E-01  6.82322923081E-01  6.93790814892E-01  7.05451439881E-01
  7.17308037187E-01  7.29363900384E-01  7.41622378401E-01  7.54086876449E-01
  7.66760856970E-01  7.79647840595E-01  7.92751407124E-01  8.06075196522E-01
  8.19622909926E-01  8.33398310678E-01  8.47405225366E-01  8.61647544890E-01
  8.76129225541E-01  8.90854290102E-01  9.05826828962E-01  9.21051001258E-01
  9.36531036023E-01  9.52271233367E-01  9.68275965668E-01  9.84549678787E-01
  1.00109689331E+00  1.01792220578E+00  1.03503029001E+00  1.05242589836E+00
  1.07011386305E+00  1.08809909752E+00  1.10638659778E+00  1.12498144381E+00
  1.14388880097E+00  1.16311392142E+00  1.18266214560E+00  1.20253890369E+00
  1.22274971714E+00  1.24330020020E+00  1.26419606147E+00  1.28544310549E+00
  1.30704723435E+00  1.32901444933E+00  1.35135085259E+00  1.37406264882E+00
  1.39715614701E+00  1.42063776215E+00  1.44451401708E+00  1.46879154423E+00
  1.49347708753E+00  1.51857750422E+00  1.54409976681E+00  1.57005096497E+00
  1.59643830755E+00  1.62326912452E+00  1.65055086907E+00  1.67829111963E+00
  1.70649758201E+00  1.73517809151E+00  1.76434061513E+00  1.79399325375E+00
  1.82414424442E+00  1.85480196260E+00  1.88597492452E+00  1.91767178954E+00
  1.94990136254E+00  1.98267259640E+00  2.01599459444E+00  2.04987661298E+00
  2.08432806393E+00  2.11935851734E+00  2.15497770412E+00  2.19119551873E+00
  2.22802202189E+00  2.26546744343E+00  2.30354218510E+00  2.34225682346E+00
  2.38162211282E+00  2.42164898824E+00  2.46234856855E+00  2.50373215945E+00
  2.54581125666E+00  2.58859754908E+00  2.63210292206E+00  2.67633946071E+00
  2.72131945325E+00  2.76705539440E+00  2.81355998889E+00  2.86084615496E+00
  2.90892702796E+00  2.95781596400E+00  3.00752654365E+00  3.05807257572E+00
  3.10946810111E+00  3.16172739668E+00  3.21486497923E+00  3.26889560956E+00
  3.32383429651E+00  3.37969630118E+00  3.43649714116E+00  3.49425259482E+00
  3.55297870571E+00  3.61269178703E+00  3.67340842612E+00  3.73514548911E+00
  3.79792012558E+00  3.86174977333E+00  3.92665216322E+00  3.99264532412E+00
  4.05974758789E+00  4.12797759447E+00  4.19735429709E+00  4.26789696749E+00
  4.33962520131E+00  4.41255892353E+00  4.48671839399E+00  4.56212421300E+00
  4.63879732712E+00  4.71675903493E+00  4.79603099296E+00  4.87663522171E+00
  4.95859411175E+00  5.04193042998E+00  5.12666732591E+00  5.21282833810E+00
  5.30043740074E+00  5.38951885022E+00  5.48009743198E+00  5.57219830730E+00
  5.66584706037E+00  5.76106970532E+00  5.85789269350E+00  5.95634292081E+00
  6.05644773516E+00  6.15823494410E+00  6.26173282251E+00  6.36697012045E+00
  6.47397607119E+00  6.58278039929E+00  6.69341332887E+00  6.80590559202E+00
  6.92028843732E+00  7.03659363850E+00  7.15485350332E+00  7.27510088249E+00
  7.39736917885E+00  7.52169235660E+00  7.64810495074E+00  7.77664207671E+00
  7.90733944008E+00  8.04023334652E+00  8.17536071186E+00  8.31275907235E+00
  8.45246659507E+00  8.59452208858E+00  8.73896501365E+00  8.88583549424E+00
  9.03517432865E+00  9.18702300085E+00  9.34142369200E+00  9.49841929219E+00
  9.65805341229E+00  9.82037039616E+00  9.98541533289E+00  1.01532340694E+01
  1.03238732229E+01  1.04973801945E+01  1.06738031816E+01  1.08531911917E+01
  1.10355940559E+01  1.12210624430E+01  1.14096478730E+01  1.16014027321E+01
  1.17963802867E+01  1.19946346985E+01  1.21962210394E+01  1.24011953070E+01
  1.26096144399E+01  1.28215363335E+01  1.30370198565E+01  1.32561248668E+01
  1.34789122283E+01  1.37054438278E+01  1.39357825922E+01  1.41699925060E+01
  1.44081386290E+01  1.46502871143E+01  1.48965052272E+01  1.51468613630E+01
  1.54014250667E+01  1.56602670521E+01  1.59234592214E+01  1.61910746854E+01
  1.64631877832E+01  1.67398741036E+01  1.70212105057E+01  1.73072751404E+01
  1.75981474718E+01  1.78939082998E+01  1.81946397819E+01  1.85004254567E+01
  1.88113502665E+01  1.91275005814E+01  1.94489642230E+01  1.97758304887E+01
  2.01081901769E+01  2.04461356118E+01  2.07897606694E+01  2.11391608032E+01
  2.14944330711E+01  2.18556761621E+01  2.22229904238E+01  2.25964778904E+01
  2.29762423107E+01  2.33623891773E+01  2.37550257558E+01  2.41542611143E+01
  2.45602061542E+01  2.49729736405E+01  2.53926782336E+01  2.58194365207E+01
  2.62533670486E+01  2.66945903563E+01  2.71432290087E+01  2.75994076305E+01
  2.80632529409E+01  2.85348937889E+01  2.90144611888E+01  2.95020883568E+01
  2.99979107482E+01  3.05020660944E+01  3.10146944420E+01  3.15359381910E+01
  3.20659421346E+01  3.26048534996E+01  3.31528219870E+01  3.37099998139E+01
  3.42765417554E+01  3.48526051880E+01  3.54383501330E+01  3.60339393010E+01
  3.66395381373E+01  3.72553148678E+01  3.78814405454E+01  3.85180890981E+01
  3.91654373767E+01  3.98236652043E+01  4.04929554262E+01  4.11734939608E+01
  4.18654698508E+01  4.25690753162E+01  4.32845058075E+01  4.40119600601E+01
  4.47516401491E+01  4.55037515461E+01  4.62685031758E+01  4.70461074739E+01
  4.78367804469E+01  4.86407417310E+01  4.94582146541E+01  5.02894262972E+01
  5.11346075579E+01  5.19939932140E+01  5.28678219894E+01  5.37563366199E+01
  5.46597839208E+01  5.55784148555E+01  5.65124846053E+01  5.74622526398E+01
  5.84279827898E+01  5.94099433197E+01  6.04084070027E+01  6.14236511962E+01
  6.24559579191E+01  6.35056139298E+01  6.45729108062E+01  6.56581450266E+01
  6.67616180518E+01  6.78836364092E+01  6.90245117778E+01  7.01845610749E+01
  7.13641065436E+01  7.25634758433E+01  7.37830021396E+01  7.50230241978E+01
  7.62838864764E+01  7.75659392230E+01  7.88695385716E+01  8.01950466416E+01
  8.15428316381E+01  8.29132679546E+01  8.43067362766E+01  8.57236236876E+01
  8.71643237765E+01  8.86292367471E+01  9.01187695291E+01  9.16333358912E+01
  9.31733565559E+01  9.47392593167E+01  9.63314791567E+01  9.79504583693E+01
  9.95966466815E+01  1.01270501378E+02  1.02972487430E+02  1.04703077622E+02
  1.06462752684E+02  1.08252001427E+02  1.10071320875E+02  1.11921216407E+02
  1.13802201895E+02  1.15714799846E+02  1.17659541550E+02  1.19636967226E+02
  1.21647626171E+02  1.23692076914E+02  1.25770887372E+02  1.27884635006E+02
  1.30033906980E+02  1.32219300330E+02  1.34441422122E+02  1.36700889627E+02
  1.38998330490E+02  1.41334382902E+02  1.43709695784E+02  1.46124928958E+02
  1.48580753339E+02  1.51077851116E+02  1.53616915943E+02  1.56198653133E+02
  1.58823779851E+02  1.61493025315E+02  1.64207131001E+02  1.66966850844E+02
  1.69772951450E+02  1.72626212310E+02  1.75527426015E+02  1.78477398476E+02
  1.81476949148E+02  1.84526911261E+02  1.87628132044E+02  1.90781472968E+02
  1.93987809981E+02  1.97248033754E+02  2.00563049925E+02
  </PP_R>
  <PP_RAB>
  5.42786884259E-07  5.51909139965E-07  5.61184707314E-07  5.70616162913E-07
  5.80206126671E-07  5.89957262528E-07  5.99872279196E-07  6.09953930909E-07
  6.20205018193E-07  6.30628388635E-07  6.41226937686E-07  6.52003609453E-07
  6.62961397527E-07  6.74103345807E-07  6.85432549351E-07  6.96952155233E-07
  7.08665363417E-07  7.20575427648E-07  7.32685656353E-07  7.44999413563E-07
  7.57520119845E-07  7.70251253253E-07  7.83196350296E-07  7.96359006916E-07
  8.09742879493E-07  8.23351685853E-07  8.37189206310E-07  8.51259284707E-07
  8.65565829490E-07  8.80112814792E-07  8.94904281534E-07  9.09944338554E-07
  9.25237163741E-07  9.40787005200E-07  9.56598182433E-07  9.72675087533E-07
  9.89022186413E-07  1.00564402004E-06  1.02254520569E-06  1.03973043825E-06
  1.05720449151E-06  1.07497221948E-06  1.09303855776E-06  1.11140852488E-06
  1.13008722375E-06  1.14907984299E-06  1.16839165847E-06  1.18802803471E-06
  1.20799442637E-06  1.22829637980E-06  1.24893953457E-06  1.26992962502E-06
  1.29127248187E-06  1.31297403382E-06  1.33504030922E-06  1.35747743773E-06
  1.38029165204E-06  1.40348928958E-06  1.42707679427E-06  1.45106071836E-06
  1.47544772421E-06  1.50024458613E-06  1.52545819230E-06  1.55109554667E-06
  1.57716377089E-06  1.60367010630E-06  1.63062191593E-06  1.65802668659E-06
  1.68589203087E-06  1.71422568934E-06  1.74303553263E-06  1.77232956367E-06
  1.80211591987E-06  1.83240287541E-06  1.86319884354E-06  1.89451237887E-06
  1.92635217984E-06  1.95872709101E-06  1.99164610564E-06  2.02511836810E-06
  2.05915317647E-06  2.09375998507E-06  2.12894840713E-06  2.16472821743E-06
  2.20110935505E-06  2.23810192609E-06  2.27571620649E-06  2.31396264493E-06
  2.35285186564E-06  2.39239467144E-06  2.43260204670E-06  2.47348516040E-06
  2.51505536921E-06  2.55732422069E-06  2.60030345644E-06  2.64400501544E-06
  2.68844103727E-06  2.73362386557E-06  2.77956605140E-06  2.82628035679E-06
  2.87377975823E-06  2.92207745031E-06  2.97118684935E-06  3.02112159718E-06
  3.07189556488E-06  3.12352285666E-06  3.17601781375E-06  3.22939501844E-06
  3.28366929807E-06  3.33885572917E-06  3.39496964167E-06  3.45202662312E-06
  3.51004252305E-06  3.56903345736E-06  3.62901581281E-06  3.69000625153E-06
  3.75202171572E-06  3.81507943230E-06  3.87919691768E-06  3.94439198272E-06
  4.01068273755E-06  4.07808759671E-06  4.14662528421E-06  4.21631483872E-06
  4.28717561891E-06  4.35922730879E-06  4.43248992317E-06  4.50698381325E-06
  4.58272967226E-06  4.65974854121E-06  4.73806181471E-06  4.81769124695E-06
  4.89865895775E-06  4.98098743864E-06  5.06469955919E-06  5.14981857329E-06
  5.23636812566E-06  5.32437225840E-06  5.41385541768E-06  5.50484246049E-06
  5.59735866160E-06  5.69142972056E-06  5.78708176882E-06  5.88434137699E-06
  5.98323556228E-06  6.08379179592E-06  6.18603801084E-06  6.29000260944E-06
  6.39571447142E-06  6.50320296188E-06  6.61249793943E-06  6.72362976448E-06
  6.83662930770E-06  6.95152795857E-06  7.06835763413E-06  7.18715078782E-06
  7.30794041849E-06  7.43076007961E-06  7.55564388853E-06  7.68262653600E-06
  7.81174329580E-06  7.94303003452E-06  8.07652322155E-06  8.21225993918E-06
  8.35027789294E-06  8.49061542202E-06  8.63331150999E-06  8.77840579555E-06
  8.92593858362E-06  9.07595085646E-06  9.22848428512E-06  9.38358124098E-06
  9.54128480753E-06  9.70163879231E-06  9.86468773914E-06  1.00304769404E-05
  1.01990524498E-05  1.03704610949E-05  1.05447504904E-05  1.07219690509E-05
  1.09021660052E-05  1.10853914090E-05  1.12716961595E-05  1.14611320092E-05
  1.16537515803E-05  1.18496083796E-05  1.20487568130E-05  1.22512522007E-05
  1.24571507929E-05  1.26665097847E-05  1.28793873330E-05  1.30958425717E-05
  1.33159356287E-05  1.35397276422E-05  1.37672807783E-05  1.39986582476E-05
  1.42339243231E-05  1.44731443580E-05  1.47163848038E-05  1.49637132289E-05
  1.52151983372E-05  1.54709099874E-05  1.57309192120E-05  1.59952982375E-05
  1.62641205043E-05  1.65374606870E-05  1.68153947150E-05  1.70979997942E-05
  1.73853544277E-05  1.76775384381E-05  1.79746329895E-05  1.82767206101E-05
  1.85838852150E-05  1.88962121298E-05  1.92137881139E-05  1.95367013849E-05
  1.98650416431E-05  2.01989000960E-05  2.05383694845E-05  2.08835441076E-05
  2.12345198496E-05  2.15913942057E-05  2.19542663103E-05  2.23232369633E-05
  2.26984086590E-05  2.30798856141E-05  2.34677737970E-05  2.38621809569E-05
  2.42632166538E-05  2.46709922891E-05  2.50856211365E-05  2.55072183732E-05
  2.59359011125E-05  2.63717884354E-05  2.68150014247E-05  2.72656631980E-05
  2.77238989419E-05  2.81898359471E-05  2.86636036436E-05  2.91453336365E-05
  2.96351597428E-05  3.01332180285E-05  3.06396468463E-05  3.11545868741E-05
  3.16781811541E-05  3.22105751326E-05  3.27519167002E-05  3.33023562331E-05
  3.38620466346E-05  3.44311433779E-05  3.50098045491E-05  3.55981908911E-05
  3.61964658483E-05  3.68047956122E-05  3.74233491671E-05  3.80522983373E-05
  3.86918178351E-05  3.93420853089E-05  4.00032813927E-05  4.06755897563E-05
  4.13591971564E-05  4.20542934884E-05  4.27610718389E-05  4.34797285399E-05
  4.42104632228E-05  4.49534788743E-05  4.57089818922E-05  4.64771821435E-05
  4.72582930221E-05  4.80525315081E-05  4.88601182285E-05  4.96812775182E-05
  5.05162374822E-05  5.13652300591E-05  5.22284910859E-05  5.31062603627E-05
  5.39987817199E-05  5.49063030859E-05  5.58290765559E-05  5.67673584616E-05
  5.77214094431E-05  5.86914945206E-05  5.96778831683E-05  6.06808493896E-05
  6.17006717926E-05  6.27376336678E-05  6.37920230668E-05  6.48641328825E-05
  6.59542609300E-05  6.70627100295E-05  6.81897880909E-05  6.93358081985E-05
  7.05010886987E-05  7.16859532880E-05  7.28907311030E-05  7.41157568120E-05
  7.53613707078E-05  7.66279188023E-05  7.79157529225E-05  7.92252308084E-05
  8.05567162123E-05  8.19105789998E-05  8.32871952526E-05  8.46869473729E-05
  8.61102241899E-05  8.75574210672E-05  8.90289400135E-05  9.05251897933E-05
  9.20465860412E-05  9.35935513772E-05  9.51665155236E-05  9.67659154252E-05
  9.83921953700E-05  1.00045807113E-04  1.01727210001E-04  1.03436871101E-04
  1.05175265331E-04  1.06942875589E-04  1.08740192889E-04  1.10567716496E-04
  1.12425954070E-04  1.14315421798E-04  1.16236644545E-04  1.18190155996E-04
  1.20176498806E-04  1.22196224750E-04  1.24249894875E-04  1.26338079659E-04
  1.28461359166E-04  1.30620323210E-04  1.32815571517E-04  1.35047713892E-04
  1.37317370390E-04  1.39625171484E-04  1.41971758247E-04  1.44357782521E-04
  1.46783907108E-04  1.49250805946E-04  1.51759164301E-04  1.54309678956E-04
  1.56903058402E-04  1.59540023040E-04  1.62221305377E-04  1.64947650231E-04
  1.67719814937E-04  1.70538569560E-04  1.73404697103E-04  1.76318993733E-04
  1.79282268995E-04  1.82295346040E-04  1.85359061854E-04  1.88474267488E-04
  1.91641828296E-04  1.94862624178E-04  1.98137549820E-04  2.01467514944E-04
  2.04853444563E-04  2.08296279233E-04  2.11796975320E-04  2.15356505262E-04
  2.18975857840E-04  2.22656038454E-04  2.26398069398E-04  2.30202990151E-04
  2.34071857660E-04  2.38005746634E-04  2.42005749846E-04  2.46072978433E-04
  2.50208562208E-04  2.54413649969E-04  2.58689409826E-04  2.63037029515E-04
  2.67457716736E-04  2.71952699488E-04  2.76523226405E-04  2.81170567108E-04
  2.85896012553E-04  2.90700875397E-04  2.95586490352E-04  3.00554214567E-04
  3.05605427996E-04  3.10741533786E-04  3.15963958668E-04  3.21274153347E-04
  3.26673592913E-04  3.32163777244E-04  3.37746231427E-04  3.43422506179E-04
  3.49194178280E-04  3.55062851009E-04  3.61030154591E-04  3.67097746648E-04
  3.73267312663E-04  3.79540566442E-04  3.85919250596E-04  3.92405137024E-04
  3.99000027402E-04  4.05705753687E-04  4.12524178623E-04  4.19457196261E-04
  4.26506732484E-04  4.33674745542E-04  4.40963226596E-04  4.48374200271E-04
  4.55909725217E-04  4.63571894685E-04  4.71362837105E-04  4.79284716677E-04
  4.87339733975E-04  4.95530126555E-04  5.03858169578E-04  5.12326176443E-04
  5.20936499430E-04  5.29691530350E-04  5.38593701212E-04  5.47645484898E-04
  5.56849395852E-04  5.66207990774E-04  5.75723869335E-04  5.85399674894E-04
  5.95238095238E-04  6.05241863325E-04  6.15413758044E-04  6.25756604986E-04
  6.36273277231E-04  6.46966696144E-04  6.57839832188E-04  6.68895705749E-04
  6.80137387974E-04  6.91568001624E-04  7.03190721944E-04  7.15008777541E-04
  7.27025451286E-04  7.39244081219E-04  7.51668061484E-04  7.64300843267E-04
  7.77145935753E-04  7.90206907108E-04  8.03487385462E-04  8.16991059923E-04
  8.30721681599E-04  8.44683064639E-04  8.58879087295E-04  8.73313692998E-04
  8.87990891453E-04  9.02914759755E-04  9.18089443518E-04  9.33519158030E-04
  9.49208189422E-04  9.65160895858E-04  9.81381708750E-04  9.97875133982E-04
  1.01464575317E-03  1.03169822492E-03  1.04903728615E-03  1.06666775337E-03
  1.08459452404E-03  1.10282257795E-03  1.12135697855E-03  1.14020287441E-03
  1.15936550063E-03  1.17885018027E-03  1.19866232588E-03  1.21880744095E-03
  1.23929112148E-03  1.26011905751E-03  1.28129703471E-03  1.30283093600E-03
  1.32472674315E-03  1.34699053847E-03  1.36962850648E-03  1.39264693567E-03
  1.41605222018E-03  1.43985086164E-03  1.46404947093E-03  1.48865477004E-03
  1.51367359393E-03  1.53911289245E-03  1.56497973222E-03  1.59128129865E-03
  1.61802489789E-03  1.64521795890E-03  1.67286803547E-03  1.70098280837E-03
  1.72957008743E-03  1.75863781375E-03  1.78819406187E-03  1.81824704207E-03
  1.84880510258E-03  1.87987673196E-03  1.91147056140E-03  1.94359536718E-03
  1.97626007306E-03  2.00947375277E-03  2.04324563257E-03  2.07758509373E-03
  2.11250167522E-03  2.14800507631E-03  2.18410515930E-03  2.22081195220E-03
  2.25813565160E-03  2.29608662541E-03  2.33467541584E-03  2.37391274222E-03
  2.41380950407E-03  2.45437678409E-03  2.49562585121E-03  2.53756816379E-03
  2.58021537273E-03  2.62357932475E-03  2.66767206568E-03  2.71250584378E-03
  2.75809311316E-03  2.80444653726E-03  2.85157899231E-03  2.89950357098E-03
  2.94823358595E-03  2.99778257365E-03  3.04816429801E-03  3.09939275427E-03
  3.15148217290E-03  3.20444702350E-03  3.25830201889E-03  3.31306211911E-03
  3.36874253568E-03  3.42535873572E-03  3.48292644632E-03  3.54146165889E-03
  3.60098063358E-03  3.66149990382E-03  3.72303628091E-03  3.78560685869E-03
  3.84922901827E-03  3.91392043288E-03  3.97969907279E-03  4.04658321024E-03
  4.11459142461E-03  4.18374260749E-03  4.25405596801E-03  4.32555103809E-03
  4.39824767793E-03  4.47216608153E-03  4.54732678224E-03  4.62375065852E-03