<PP_INFO>
Generated using Vanderbilt code, version   7  3  6                              
Author: unknown    Generation date:    3    9   15                              
Automatically converted from original format                                    
    1        The Pseudo was generated with a Scalar-Relativistic Calculation
  2.20000000000E+00    Local Potential cutoff radius
nl pn  l   occ               Rcut            Rcut US             E pseu
5D  5  2 10.00      1.20000000000      2.20000000000     -1.99789032851
6S  6  0  2.00      1.20000000000      2.50000000000     -1.08483186991
6P  6  1  3.00      1.20000000000      2.50000000000     -0.35091687781
</PP_INFO>


<PP_HEADER>
   0                   Version Number
  bi                   Element
   US                  Ultrasoft pseudopotential
    F                  Nonlinear Core Correction
SLA  PZ   NOGX NOGC    PZ   Exchange-Correlation functional
   15.00000000000      Z valence
 -142.02773759870      Total energy
    0.00000    0.00000 Suggested cutoff for wfc and rho
    2                  Max angular momentum component
  899                  Number of points in mesh
    3    6             Number of Wavefunctions, Number of Projectors
 Wavefunctions         nl  l   occ
                       5D  2 10.00
                       6S  0  2.00
                       6P  1  3.00
</PP_HEADER>


<PP_MESH>
  <PP_R>
  0.00000000000E+00  6.89403751357E-10  1.39625984177E-09  2.12101007930E-09
  2.86410745645E-09  3.62601643326E-09  4.40721322765E-09  5.20818611305E-09
  6.02943572357E-09  6.87147536696E-09  7.73483134541E-09  8.62004328452E-09
  9.52766447055E-09  1.04582621963E-08  1.14124181156E-08  1.23907286071E-08
  1.33938051465E-08  1.44222746894E-08  1.54767800628E-08  1.65579803667E-08
  1.76665513867E-08  1.88031860157E-08  1.99685946873E-08  2.11635058198E-08
  2.23886662717E-08  2.36448418082E-08  2.49328175797E-08  2.62533986131E-08
  2.76074103145E-08  2.89956989853E-08  3.04191323512E-08  3.18786001043E-08
  3.33750144594E-08  3.49093107243E-08  3.64824478841E-08  3.80954092006E-08
  3.97492028273E-08  4.14448624390E-08  4.31834478781E-08  4.49660458172E-08
  4.67937704379E-08  4.86677641277E-08  5.05891981936E-08  5.25592735945E-08
  5.45792216915E-08  5.66503050182E-08  5.87738180688E-08  6.09510881082E-08
  6.31834760012E-08  6.54723770626E-08  6.78192219304E-08  7.02254774587E-08
  7.26926476359E-08  7.52222745234E-08  7.78159392204E-08  8.04752628518E-08
  8.32019075815E-08  8.59975776512E-08  8.88640204456E-08  9.18030275848E-08
  9.48164360440E-08  9.79061293015E-08  1.01074038516E-07  1.04322143734E-07
  1.07652475128E-07  1.11067114262E-07  1.14568195397E-07  1.18157906823E-07
  1.21838492227E-07  1.25612252093E-07  1.29481545146E-07  1.33448789818E-07
  1.37516465767E-07  1.41687115424E-07  1.45963345579E-07  1.50347829016E-07
  1.54843306179E-07  1.59452586889E-07  1.64178552095E-07  1.69024155680E-07
  1.73992426304E-07  1.79086469298E-07  1.84309468604E-07  1.89664688767E-07
  1.95155476973E-07  2.00785265145E-07  2.06557572083E-07  2.12476005667E-07
  2.18544265111E-07  2.24766143273E-07  2.31145529031E-07  2.37686409709E-07
  2.44392873569E-07  2.51269112370E-07  2.58319423985E-07  2.65548215089E-07
  2.72960003910E-07  2.80559423059E-07  2.88351222419E-07  2.96340272119E-07
  3.04531565575E-07  3.12930222613E-07  3.21541492665E-07  3.30370758057E-07
  3.39423537367E-07  3.48705488875E-07  3.58222414105E-07  3.67980261444E-07
  3.77985129864E-07  3.88243272735E-07  3.98761101728E-07  4.09545190830E-07
  4.20602280448E-07  4.31939281621E-07  4.43563280346E-07  4.55481542000E-07
  4.67701515883E-07  4.80230839879E-07  4.93077345221E-07  5.06249061395E-07
  5.19754221151E-07  5.33601265654E-07  5.47798849757E-07  5.62355847413E-07
  5.77281357219E-07  5.92584708105E-07  6.08275465163E-07  6.24363435627E-07
  6.40858675002E-07  6.57771493351E-07  6.75112461734E-07  6.92892418821E-07
  7.11122477666E-07  7.29814032647E-07  7.48978766595E-07  7.68628658093E-07
  7.88775988962E-07  8.09433351941E-07  8.30613658553E-07  8.52330147180E-07
  8.74596391334E-07  8.97426308142E-07  9.20834167046E-07  9.44834598719E-07
  9.69442604213E-07  9.94673564331E-07  1.02054324925E-06  1.04706782835E-06
  1.07426388038E-06  1.10214840373E-06  1.13073882716E-06  1.16005302060E-06
  1.19010930639E-06  1.22092647067E-06  1.25252377517E-06  1.28492096925E-06
  1.31813830221E-06  1.35219653595E-06  1.38711695798E-06  1.42292139470E-06
  1.45963222506E-06  1.49727239451E-06  1.53586542938E-06  1.57543545159E-06
  1.61600719368E-06  1.65760601430E-06  1.70025791409E-06  1.74398955186E-06
  1.78882826131E-06  1.83480206809E-06  1.88193970733E-06  1.93027064160E-06
  1.97982507928E-06  2.03063399354E-06  2.08272914157E-06  2.13614308456E-06
  2.19090920796E-06  2.24706174237E-06  2.30463578495E-06  2.36366732137E-06
  2.42419324824E-06  2.48625139624E-06  2.54988055374E-06  2.61512049104E-06
  2.68201198520E-06  2.75059684561E-06  2.82091794002E-06  2.89301922141E-06
  2.96694575543E-06  3.04274374857E-06  3.12046057704E-06  3.20014481640E-06
  3.28184627187E-06  3.36561600954E-06  3.45150638821E-06  3.53957109217E-06
  3.62986516472E-06  3.72244504261E-06  3.81736859126E-06  3.91469514098E-06
  4.01448552404E-06  4.11680211268E-06  4.22170885809E-06  4.32927133040E-06
  4.43955675966E-06  4.55263407786E-06  4.66857396200E-06  4.78744887827E-06
  4.90933312738E-06  5.03430289095E-06  5.16243627914E-06  5.29381337950E-06
  5.42851630699E-06  5.56662925532E-06  5.70823854958E-06  5.85343270020E-06
  6.00230245824E-06  6.15494087214E-06  6.31144334589E-06  6.47190769863E-06
  6.63643422579E-06  6.80512576182E-06  6.97808774442E-06  7.15542828045E-06
  7.33725821353E-06  7.52369119327E-06  7.71484374637E-06  7.91083534939E-06
  8.11178850346E-06  8.31782881084E-06  8.52908505344E-06  8.74568927328E-06
  8.96777685506E-06  9.19548661073E-06  9.42896086631E-06  9.66834555081E-06
  9.91379028746E-06  1.01654484872E-05  1.04234774446E-05  1.06880384361E-05
  1.09592968211E-05  1.12374221447E-05  1.15225882444E-05  1.18149733583E-05
  1.21147602366E-05  1.24221362559E-05  1.27372935362E-05  1.30604290609E-05
  1.33917448005E-05  1.37314478379E-05  1.40797504986E-05  1.44368704832E-05
  1.48030310032E-05  1.51784609209E-05  1.55633948923E-05  1.59580735135E-05
  1.63627434716E-05  1.67776576984E-05  1.72030755289E-05  1.76392628631E-05
  1.80864923322E-05  1.85450434692E-05  1.90152028835E-05  1.94972644400E-05
  1.99915294430E-05  2.04983068240E-05  2.10179133356E-05  2.15506737486E-05
  2.20969210557E-05  2.26569966792E-05  2.32312506846E-05  2.38200419994E-05
  2.44237386372E-05  2.50427179282E-05  2.56773667546E-05  2.63280817925E-05
  2.69952697600E-05  2.76793476713E-05  2.83807430974E-05  2.90998944332E-05
  2.98372511718E-05  3.05932741851E-05  3.13684360121E-05  3.21632211541E-05
  3.29781263778E-05  3.38136610255E-05  3.46703473335E-05  3.55487207586E-05
  3.64493303129E-05  3.73727389065E-05  3.83195237000E-05  3.92902764647E-05
  4.02856039526E-05  4.13061282758E-05  4.23524872952E-05  4.34253350194E-05
  4.45253420130E-05  4.56531958162E-05  4.68096013743E-05  4.79952814786E-05
  4.92109772176E-05  5.04574484407E-05  5.17354742331E-05  5.30458534024E-05
  5.43894049784E-05  5.57669687244E-05  5.71794056627E-05  5.86275986123E-05
  6.01124527410E-05  6.16348961309E-05  6.31958803587E-05  6.47963810904E-05
  6.64373986910E-05  6.81199588500E-05  6.98451132221E-05  7.16139400851E-05
  7.34275450134E-05  7.52870615689E-05  7.71936520102E-05  7.91485080183E-05
  8.11528514419E-05  8.32079350608E-05  8.53150433692E-05  8.74754933784E-05
  8.96906354400E-05  9.19618540898E-05  9.42905689135E-05  9.66782354336E-05
  9.91263460194E-05  1.01636430820E-04  1.04210058719E-04  1.06848838320E-04
  1.09554418943E-04  1.12328491667E-04  1.15172790375E-04  1.18089092848E-04
  1.21079221870E-04  1.24145046369E-04  1.27288482584E-04  1.30511495265E-04
  1.33816098902E-04  1.37204358977E-04  1.40678393265E-04  1.44240373149E-04
  1.47892524984E-04  1.51637131482E-04  1.55476533145E-04  1.59413129725E-04
  1.63449381720E-04  1.67587811922E-04  1.71831006983E-04  1.76181619038E-04
  1.80642367362E-04  1.85216040068E-04  1.89905495849E-04  1.94713665768E-04
  1.99643555089E-04  2.04698245151E-04  2.09880895302E-04  2.15194744866E-04
  2.20643115173E-04  2.26229411630E-04  2.31957125855E-04  2.37829837856E-04
  2.43851218270E-04  2.50025030654E-04  2.56355133843E-04  2.62845484357E-04
  2.69500138877E-04  2.76323256777E-04  2.83319102730E-04  2.90492049366E-04
  2.97846580011E-04  3.05387291486E-04  3.13118896980E-04  3.21046228999E-04
  3.29174242384E-04  3.37508017407E-04  3.46052762950E-04  3.54813819755E-04
  3.63796663770E-04  3.73006909563E-04  3.82450313839E-04  3.92132779032E-04
  4.02060356999E-04  4.12239252798E-04  4.22675828572E-04  4.33376607518E-04
  4.44348277974E-04  4.55597697589E-04  4.67131897618E-04  4.78958087311E-04
  4.91083658421E-04  5.03516189825E-04  5.16263452261E-04  5.29333413181E-04
  5.42734241737E-04  5.56474313883E-04  5.70562217611E-04  5.85006758321E-04
  5.99816964319E-04  6.15002092467E-04  6.30571633964E-04  6.46535320281E-04
  6.62903129241E-04  6.79685291257E-04  6.96892295728E-04  7.14534897591E-04
  7.32624124046E-04  7.51171281449E-04  7.70187962377E-04  7.89686052875E-04
  8.09677739884E-04  8.30175518859E-04  8.51192201579E-04  8.72740924155E-04
  8.94835155240E-04  9.17488704448E-04  9.40715730985E-04  9.64530752498E-04
  9.88948654151E-04  1.01398469793E-03  1.03965453217E-03  1.06597420136E-03
  1.09296015614E-03  1.12062926363E-03  1.14899881791E-03  1.17808655087E-03
  1.20791064329E-03  1.23848973622E-03  1.26984294256E-03  1.30198985910E-03
  1.33495057871E-03  1.36874570291E-03  1.40339635475E-03  1.43892419202E-03
  1.47535142077E-03  1.51270080920E-03  1.55099570191E-03  1.59026003444E-03
  1.63051834828E-03  1.67179580619E-03  1.71411820792E-03  1.75751200635E-03
  1.80200432401E-03  1.84762297007E-03  1.89439645764E-03  1.94235402169E-03
  1.99152563726E-03  2.04194203819E-03  2.09363473640E-03  2.14663604149E-03
  2.20097908100E-03  2.25669782112E-03  2.31382708785E-03  2.37240258885E-03
  2.43246093573E-03  2.49403966689E-03  2.55717727105E-03  2.62191321128E-03
  2.68828794963E-03  2.75634297248E-03  2.82612081644E-03  2.89766509493E-03
  2.97102052545E-03  3.04623295753E-03  3.12334940140E-03  3.20241805734E-03
  3.28348834584E-03  3.36661093846E-03  3.45183778953E-03  3.53922216860E-03
  3.62881869377E-03  3.72068336577E-03  3.81487360301E-03  3.91144827746E-03
  4.01046775143E-03  4.11199391532E-03  4.21609022629E-03  4.32282174791E-03
  4.43225519087E-03  4.54445895462E-03  4.65950317018E-03  4.77745974392E-03
  4.89840240254E-03  5.02240673915E-03  5.14955026047E-03  5.27991243537E-03
  5.41357474443E-03  5.55062073096E-03  5.69113605315E-03  5.83520853766E-03
  5.98292823448E-03  6.13438747323E-03  6.28968092086E-03  6.44890564084E-03
  6.61216115379E-03  6.77954949973E-03  6.95117530182E-03  7.12714583178E-03
  7.30757107691E-03  7.49256380886E-03  7.68223965412E-03  7.87671716627E-03
  8.07611790008E-03  8.28056648749E-03  8.49019071553E-03  8.70512160618E-03
  8.92549349822E-03  9.15144413127E-03  9.38311473183E-03  9.62065010157E-03
  9.86419870781E-03  1.01139127764E-02  1.03699483867E-02  1.06324655693E-02
  1.09016284061E-02  1.11776051325E-02  1.14605682430E-02  1.17506945988E-02
  1.20481655382E-02  1.23531669903E-02  1.26658895909E-02  1.29865288019E-02
  1.33152850331E-02  1.36523637679E-02  1.39979756916E-02  1.43523368227E-02
  1.47156686486E-02  1.50881982634E-02  1.54701585103E-02  1.58617881270E-02
  1.62633318945E-02  1.66750407910E-02  1.70971721478E-02  1.75299898107E-02
  1.79737643050E-02  1.84287730040E-02  1.88953003031E-02  1.93736377971E-02
  1.98640844623E-02  2.03669468440E-02  2.08825392474E-02  2.14111839348E-02
  2.19532113260E-02  2.25089602061E-02  2.30787779360E-02  2.36630206704E-02
  2.42620535800E-02  2.48762510800E-02  2.55059970637E-02  2.61516851428E-02
  2.68137188935E-02  2.74925121084E-02  2.81884890554E-02  2.89020847426E-02
  2.96337451907E-02  3.03839277112E-02  3.11531011926E-02  3.19417463934E-02
  3.27503562425E-02  3.35794361474E-02  3.44295043100E-02  3.53010920507E-02
  3.61947441400E-02  3.71110191396E-02  3.80504897513E-02  3.90137431748E-02
  4.00013814748E-02  4.10140219574E-02  4.20522975558E-02  4.31168572262E-02
  4.42083663529E-02  4.53275071647E-02  4.64749791611E-02  4.76514995493E-02
  4.88578036930E-02  5.00946455714E-02  5.13627982511E-02  5.26630543687E-02
  5.39962266266E-02  5.53631483009E-02  5.67646737622E-02  5.82016790094E-02
  5.96750622177E-02  6.11857442994E-02  6.27346694801E-02  6.43228058885E-02
  6.59511461614E-02  6.76207080646E-02  6.93325351286E-02  7.10876973011E-02
  7.28872916155E-02  7.47324428768E-02  7.66243043647E-02  7.85640585542E-02
  8.05529178548E-02  8.25921253683E-02  8.46829556658E-02  8.68267155842E-02
  8.90247450434E-02  9.12784178832E-02  9.35891427226E-02  9.59583638398E-02
  9.83875620752E-02  1.00878255757E-01  1.03432001649E-01  1.06050395926E-01
  1.08735075170E-01  1.11487717392E-01  1.14310043085E-01  1.17203816292E-01
  1.20170845717E-01  1.23212985849E-01  1.26332138125E-01  1.29530252117E-01
  1.32809326751E-01  1.36171411554E-01  1.39618607938E-01  1.43153070515E-01
  1.46777008438E-01  1.50492686786E-01  1.54302427980E-01  1.58208613231E-01
  1.62213684032E-01  1.66320143684E-01  1.70530558856E-01  1.74847561196E-01
  1.79273848970E-01  1.83812188753E-01  1.88465417155E-01  1.93236442594E-01
  1.98128247118E-01  2.03143888262E-01  2.08286500967E-01  2.13559299532E-01
  2.18965579628E-01  2.24508720356E-01  2.30192186360E-01  2.36019529991E-01
  2.41994393528E-01  2.48120511456E-01  2.54401712798E-01  2.60841923508E-01
  2.67445168929E-01  2.74215576304E-01  2.81157377357E-01  2.88274910940E-01
  2.95572625744E-01  3.03055083078E-01  3.10726959721E-01  3.18593050846E-01
  3.26658273016E-01  3.34927667257E-01  3.43406402210E-01  3.52099777360E-01
  3.61013226350E-01  3.70152320376E-01  3.79522771668E-01  3.89130437064E-01
  3.98981321667E-01  4.09081582601E-01  4.19437532859E-01  4.30055645245E-01
  4.40942556426E-01  4.52105071076E-01  4.63550166129E-01  4.75284995143E-01
  4.87316892768E-01  4.99653379331E-01  5.12302165539E-01  5.25271157294E-01
  5.38568460638E-01  5.52202386819E-01  5.66181457485E-01  5.80514410009E-01
  5.95210202954E-01  6.10278021669E-01  6.25727284030E-01  6.41567646330E-01
  6.57809009311E-01  6.74461524353E-01  6.91535599821E-01  7.09041907566E-01
  7.26991389603E-01  7.45395264940E-01  7.64265036600E-01  7.83612498803E-01
  8.03449744345E-01  8.23789172147E-01  8.44643495016E-01  8.66025747582E-01
  8.87949294449E-01  9.10427838547E-01  9.33475429698E-01  9.57106473397E-01
  9.81335739815E-01  1.00617837303E+00  1.03164990050E+00  1.05776624276E+00
  1.08454372338E+00  1.11199907914E+00  1.14014947054E+00  1.16901249249E+00
  1.19860618532E+00  1.22894904605E+00  1.26006003996E+00  1.29195861243E+00
  1.32466470111E+00  1.35819874836E+00  1.39258171406E+00  1.42783508868E+00
  1.46398090673E+00  1.50104176052E+00  1.53904081429E+00  1.57800181868E+00
  1.61794912560E+00  1.65890770340E+00  1.70090315254E+00  1.74396172154E+00
  1.78811032340E+00  1.83337655244E+00  1.87978870152E+00  1.92737577975E+00
  1.97616753060E+00  2.02619445050E+00  2.07748780791E+00  2.13007966284E+00
  2.18400288693E+00  2.23929118392E+00  2.29597911082E+00  2.35410209942E+00
  2.41369647849E+00  2.47479949644E+00  2.53744934465E+00  2.60168518133E+00
  2.66754715595E+00  2.73507643440E+00  2.80431522467E+00  2.87530680326E+00
  2.94809554222E+00  3.02272693687E+00  3.09924763428E+00  3.17770546237E+00
  3.25814945983E+00  3.34062990678E+00  3.42519835619E+00  3.51190766608E+00
  3.60081203261E+00  3.69196702389E+00  3.78542961476E+00  3.88125822239E+00
  3.97951274276E+00  4.08025458816E+00  4.18354672552E+00  4.28945371579E+00
  4.39804175428E+00  4.50937871205E+00  4.62353417832E+00  4.74057950399E+00
  4.86058784617E+00  4.98363421401E+00  5.10979551548E+00  5.23915060549E+00
  5.37178033521E+00  5.50776760251E+00  5.64719740388E+00  5.79015688747E+00
  5.93673540763E+00  6.08702458068E+00  6.24111834227E+00  6.39911300600E+00
  6.56110732368E+00  6.72720254704E+00  6.89750249100E+00  7.07211359857E+00
  7.25114500737E+00  7.43470861786E+00  7.62291916328E+00  7.81589428133E+00
  8.01375458776E+00  8.21662375169E+00  8.42462857296E+00  8.63789906135E+00
  8.85656851785E+00  9.08077361800E+00  9.31065449729E+00  9.54635483874E+00
  9.78802196274E+00  1.00358069191E+01  1.02898645815E+01  1.05503537443E+01
  1.08174372216E+01  1.10912819493E+01  1.13720590893E+01  1.16599441364E+01
  1.19551170282E+01  1.22577622574E+01  1.25680689870E+01  1.28862311688E+01
  1.32124476647E+01  1.35469223704E+01  1.38898643437E+01  1.42414879343E+01
  1.46020129185E+01  1.49716646361E+01  1.53506741315E+01  1.57392782979E+01
  1.61377200257E+01  1.65462483538E+01  1.69651186258E+01  1.73945926492E+01
  1.78349388593E+01  1.82864324868E+01  1.87493557298E+01  1.92239979306E+01
  1.97106557559E+01  2.02096333826E+01  2.07212426881E+01  2.12458034449E+01
  2.17836435204E+01  2.23350990823E+01  2.29005148082E+01  2.34802441013E+01
  2.40746493114E+01  2.46841019610E+01  2.53089829778E+01  2.59496829330E+01
  2.66066022847E+01  2.72801516289E+01  2.79707519560E+01  2.86788349136E+01
  2.94048430767E+01  3.01492302239E+01  3.09124616214E+01  3.16950143137E+01
  3.24973774218E+01  3.33200524486E+01  3.41635535929E+01  3.50284080704E+01
  3.59151564431E+01  3.68243529579E+01  3.77565658919E+01  3.87123779087E+01
  3.96923864220E+01  4.06972039688E+01  4.17274585930E+01  4.27837942372E+01
  4.38668711454E+01  4.49773662762E+01  4.61159737251E+01  4.72834051587E+01
  4.84803902598E+01  4.97076771830E+01  5.09660330225E+01  5.22562442918E+01
  5.35791174149E+01  5.49354792306E+01  5.63261775091E+01  5.77520814821E+01
  5.92140823860E+01  6.07130940190E+01  6.22500533122E+01  6.38259209152E+01
  6.54416817964E+01  6.70983458591E+01  6.87969485722E+01  7.05385516177E+01
  7.23242435542E+01  7.41551404973E+01  7.60323868172E+01  7.79571558539E+01
  7.99306506508E+01  8.19541047063E+01  8.40287827451E+01  8.61559815085E+01
  8.83370305650E+01  9.05732931412E+01  9.28661669741E+01  9.52170851844E+01
  9.76275171725E+01  1.00098969537E+02  1.02632987016E+02  1.05231153453E+02
  1.07895092786E+02  1.10626470064E+02  1.13426992488E+02  1.16298410474E+02
  1.19242518753E+02  1.22261157487E+02  1.25356213425E+02  1.28529621077E+02
  1.31783363927E+02  1.35119475668E+02  1.38540041481E+02  1.42047199329E+02
  1.45643141301E+02  1.49330114977E+02  1.53110424836E+02
  </PP_R>
  <PP_RAB>
  6.80822110536E-10  6.98057204320E-10  7.15728606581E-10  7.33847362519E-10
  7.52424796948E-10  7.71472521368E-10  7.91002441228E-10  8.11026763363E-10
  8.31558003626E-10  8.52608994711E-10  8.74192894172E-10  8.96323192649E-10
  9.19013722300E-10  9.42278665444E-10  9.66132563427E-10  9.90590325713E-10
  1.01566723920E-09  1.04137897777E-09  1.06774161211E-09  1.09477161970E-09
  1.12248589520E-09  1.15090176093E-09  1.18003697772E-09  1.20990975603E-09
  1.24053876733E-09  1.27194315574E-09  1.30414255003E-09  1.33715707586E-09
  1.37100736840E-09  1.40571458517E-09  1.44130041932E-09  1.47778711314E-09
  1.51519747202E-09  1.55355487864E-09  1.59288330764E-09  1.63320734055E-09
  1.67455218122E-09  1.71694367151E-09  1.76040830749E-09  1.80497325597E-09
  1.85066637148E-09  1.89751621373E-09  1.94555206538E-09  1.99480395040E-09
  2.04530265283E-09  2.09707973599E-09  2.15016756226E-09  2.20459931324E-09
  2.26040901057E-09  2.31763153710E-09  2.37630265880E-09  2.43645904701E-09
  2.49813830143E-09  2.56137897362E-09  2.62622059105E-09  2.69270368183E-09
  2.76086980007E-09  2.83076155182E-09  2.90242262168E-09  2.97589780016E-09
  3.05123301164E-09  3.12847534307E-09  3.20767307344E-09  3.28887570390E-09
  3.37213398873E-09  3.45749996708E-09  3.54502699546E-09  3.63476978111E-09
  3.72678441620E-09  3.82112841287E-09  3.91786073918E-09  4.01704185599E-09
  4.11873375472E-09  4.22299999613E-09  4.32990575001E-09  4.43951783593E-09
  4.55190476502E-09  4.66713678276E-09  4.78528591292E-09  4.90642600255E-09
  5.03063276815E-09  5.15798384299E-09  5.28855882563E-09  5.42243932971E-09
  5.55970903487E-09  5.70045373917E-09  5.84476141262E-09  5.99272225222E-09
  6.14442873830E-09  6.29997569237E-09  6.45946033632E-09  6.62298235326E-09
  6.79064394976E-09  6.96254991979E-09  7.13880771017E-09  7.31952748775E-09
  7.50482220828E-09  7.69480768700E-09  7.88960267101E-09  8.08932891352E-09
  8.29411124992E-09  8.50407767586E-09  8.71935942717E-09  8.94009106197E-09
  9.16641054470E-09  9.39845933242E-09  9.63638246316E-09  9.88032864663E-09
  1.01304503571E-08  1.03869039289E-08  1.06498496537E-08  1.09194518813E-08
  1.11958791217E-08  1.14793041511E-08  1.17699041192E-08  1.20678606605E-08
  1.23733600076E-08  1.26865931075E-08  1.30077557411E-08  1.33370486454E-08
  1.36746776393E-08  1.40208537519E-08  1.43757933545E-08  1.47397182959E-08
  1.51128560410E-08  1.54954398132E-08  1.58877087396E-08  1.62899080012E-08
  1.67022889856E-08  1.71251094443E-08  1.75586336539E-08  1.80031325811E-08
  1.84588840522E-08  1.89261729267E-08  1.94052912754E-08  1.98965385629E-08
  2.04002218346E-08  2.09166559091E-08  2.14461635744E-08  2.19890757900E-08
  2.25457318939E-08  2.31164798141E-08  2.37016762867E-08  2.43016870785E-08
  2.49168872159E-08  2.55476612188E-08  2.61944033417E-08  2.68575178193E-08
  2.75374191199E-08  2.82345322039E-08  2.89492927896E-08  2.96821476256E-08
  3.04335547702E-08  3.12039838772E-08  3.19939164899E-08  3.28038463419E-08
  3.36342796657E-08  3.44857355092E-08  3.53587460600E-08  3.62538569781E-08
  3.71716277370E-08  3.81126319732E-08  3.90774578451E-08  4.00667084002E-08
  4.10810019524E-08  4.21209724681E-08  4.31872699627E-08  4.42805609070E-08
  4.54015286432E-08  4.65508738128E-08  4.77293147939E-08  4.89375881505E-08
  5.01764490927E-08  5.14466719489E-08  5.27490506499E-08  5.40843992246E-08
  5.54535523095E-08  5.68573656697E-08  5.82967167344E-08  5.97725051447E-08
  6.12856533165E-08  6.28371070166E-08  6.44278359541E-08  6.60588343864E-08
  6.77311217406E-08  6.94457432507E-08  7.12037706110E-08  7.30063026458E-08
  7.48544659964E-08  7.67494158249E-08  7.86923365366E-08  8.06844425204E-08
  8.27269789073E-08  8.48212223489E-08  8.69684818157E-08  8.91700994147E-08
  9.14274512286E-08  9.37419481757E-08  9.61150368919E-08  9.85482006351E-08
  1.01042960212E-07  1.03600874928E-07  1.06223543563E-07  1.08912605371E-07
  1.11669741102E-07  1.14496674057E-07  1.17395171160E-07  1.20367044067E-07
  1.23414150295E-07  1.26538394384E-07  1.29741729089E-07  1.33026156598E-07
  1.36393729785E-07  1.39846553493E-07  1.43386785850E-07  1.47016639615E-07
  1.50738383566E-07  1.54554343914E-07  1.58466905758E-07  1.62478514576E-07
  1.66591677755E-07  1.70808966156E-07  1.75133015721E-07  1.79566529122E-07
  1.84112277449E-07  1.88773101942E-07  1.93551915770E-07  1.98451705845E-07
  2.03475534697E-07  2.08626542382E-07  2.13907948447E-07  2.19323053943E-07
  2.24875243487E-07  2.30567987379E-07  2.36404843768E-07  2.42389460881E-07
  2.48525579297E-07  2.54817034290E-07  2.61267758225E-07  2.67881783014E-07
  2.74663242637E-07  2.81616375728E-07  2.88745528221E-07  2.96055156069E-07
  3.03549828027E-07  3.11234228508E-07  3.19113160514E-07  3.27191548634E-07
  3.35474442122E-07  3.43967018057E-07  3.52674584576E-07  3.61602584190E-07
  3.70756597191E-07  3.80142345134E-07  3.89765694417E-07  3.99632659948E-07
  4.09749408900E-07  4.20122264571E-07  4.30757710334E-07  4.41662393688E-07
  4.52843130415E-07  4.64306908840E-07  4.76060894198E-07  4.88112433111E-07
  5.00469058185E-07  5.13138492712E-07  5.26128655500E-07  5.39447665826E-07
  5.53103848503E-07  5.67105739090E-07  5.81462089225E-07  5.96181872094E-07
  6.11274288041E-07  6.26748770316E-07  6.42614990975E-07  6.58882866923E-07
  6.75562566110E-07  6.92664513893E-07  7.10199399545E-07  7.28178182941E-07
  7.46612101406E-07  7.65512676738E-07  7.84891722412E-07  8.04761350964E-07
  8.25133981557E-07  8.46022347749E-07  8.67439505448E-07  8.89398841076E-07
  9.11914079932E-07  9.34999294774E-07  9.58668914611E-07  9.82937733728E-07
  1.00782092093E-06  1.03333402901E-06  1.05949300449E-06  1.08631419760E-06
  1.11381437243E-06  1.14201071751E-06  1.17092085647E-06  1.20056285907E-06
  1.23095525255E-06  1.26211703313E-06  1.29406767794E-06  1.32682715717E-06
  1.36041594657E-06  1.39485504022E-06  1.43016596368E-06  1.46637078742E-06
  1.50349214064E-06  1.54155322538E-06  1.58057783108E-06  1.62059034937E-06
  1.66161578939E-06  1.70367979336E-06  1.74680865266E-06  1.79102932424E-06
  1.83636944744E-06  1.88285736133E-06  1.93052212237E-06  1.97939352257E-06
  2.02950210816E-06  2.08087919863E-06  2.13355690634E-06  2.18756815657E-06
  2.24294670811E-06  2.29972717436E-06  2.35794504495E-06  2.41763670795E-06
  2.47883947260E-06  2.54159159261E-06  2.60593229010E-06  2.67190178010E-06
  2.73954129569E-06  2.80889311377E-06  2.88000058149E-06  2.95290814332E-06
  3.02766136887E-06  3.10430698133E-06  3.18289288670E-06  3.26346820375E-06
  3.34608329465E-06  3.43078979654E-06  3.51764065373E-06  3.60669015084E-06
  3.69799394671E-06  3.79160910917E-06  3.88759415075E-06  3.98600906522E-06
  4.08691536512E-06  4.19037612016E-06  4.29645599669E-06  4.40522129807E-06
  4.51674000617E-06  4.63108182380E-06  4.74831821833E-06  4.86852246632E-06
  4.99176969933E-06  5.11813695089E-06  5.24770320467E-06  5.38054944377E-06
  5.51675870143E-06  5.65641611286E-06  5.79960896849E-06  5.94642676852E-06
  6.09696127886E-06  6.25130658846E-06  6.40955916819E-06  6.57181793104E-06
  6.73818429403E-06  6.90876224154E-06  7.08365839036E-06  7.26298205627E-06
  7.44684532239E-06  7.63536310925E-06  7.82865324661E-06  8.02683654710E-06
  8.23003688171E-06  8.43838125730E-06  8.65199989586E-06  8.87102631600E-06
  9.09559741636E-06  9.32585356120E-06  9.56193866809E-06  9.80400029792E-06
  1.00521897471E-05  1.03066621421E-05  1.05675765364E-05  1.08350960101E-05
  1.11093877715E-05  1.13906232618E-05  1.16789782626E-05  1.19746330049E-05
  1.22777722826E-05  1.25885855677E-05  1.29072671286E-05  1.32340161516E-05
  1.35690368655E-05  1.39125386692E-05  1.42647362624E-05  1.46258497801E-05
  1.49961049301E-05  1.53757331338E-05  1.57649716712E-05  1.61640638291E-05
  1.65732590531E-05  1.69928131035E-05  1.74229882153E-05  1.78640532619E-05
  1.83162839233E-05  1.87799628583E-05  1.92553798815E-05  1.97428321440E-05
  2.02426243192E-05  2.07550687936E-05  2.12804858616E-05  2.18192039260E-05
  2.23715597031E-05  2.29378984333E-05  2.35185740967E-05  2.41139496346E-05
  2.47243971759E-05  2.53502982703E-05  2.59920441263E-05  2.66500358561E-05
  2.73246847257E-05  2.80164124129E-05  2.87256512697E-05  2.94528445938E-05
  3.01984469045E-05  3.09629242275E-05  3.17467543861E-05  3.25504272996E-05
  3.33744452899E-05  3.42193233948E-05  3.50855896908E-05  3.59737856225E-05
  3.68844663413E-05  3.78182010522E-05  3.87755733698E-05  3.97571816831E-05
  4.07636395291E-05  4.17955759768E-05  4.28536360200E-05  4.39384809808E-05
  4.50507889225E-05  4.61912550738E-05  4.73605922631E-05  4.85595313644E-05
  4.97888217535E-05  5.10492317769E-05  5.23415492321E-05  5.36665818593E-05
  5.50251578472E-05  5.64181263500E-05  5.78463580183E-05  5.93107455434E-05
  6.08122042153E-05  6.23516724943E-05  6.39301125984E-05  6.55485111040E-05
  6.72078795628E-05  6.89092551341E-05  7.06537012331E-05  7.24423081953E-05
  7.42761939583E-05  7.61565047605E-05  7.80844158572E-05  8.00611322557E-05
  8.20878894681E-05  8.41659542836E-05  8.62966255603E-05  8.84812350372E-05
  9.07211481663E-05  9.30177649663E-05  9.53725208973E-05  9.77868877585E-05
  1.00262374608E-04  1.02800528705E-04  1.05402936479E-04  1.08071224520E-04
  1.10807060594E-04  1.13612154688E-04  1.16488260077E-04  1.19437174420E-04
  1.22460740886E-04  1.25560849301E-04  1.28739437334E-04  1.31998491706E-04
  1.35340049433E-04  1.38766199096E-04  1.42279082151E-04  1.45880894264E-04
  1.49573886684E-04  1.53360367653E-04  1.57242703844E-04  1.61223321843E-04
  1.65304709667E-04  1.69489418315E-04  1.73780063368E-04  1.78179326617E-04
  1.82689957745E-04  1.87314776044E-04  1.92056672175E-04  1.96918609979E-04
  2.01903628324E-04  2.07014843009E-04  2.12255448710E-04  2.17628720977E-04
  2.23138018278E-04  2.28786784104E-04  2.34578549118E-04  2.40516933361E-04
  2.46605648517E-04  2.52848500232E-04  2.59249390489E-04  2.65812320056E-04
  2.72541390975E-04  2.79440809135E-04  2.86514886898E-04  2.93768045792E-04
  3.01204819277E-04  3.08829855580E-04  3.16647920595E-04  3.24663900869E-04
  3.32882806649E-04  3.41309775020E-04  3.49950073111E-04  3.58809101389E-04
  3.67892397036E-04  3.77205637407E-04  3.86754643581E-04  3.96545383996E-04
  4.06583978186E-04  4.16876700597E-04  4.27429984516E-04  4.38250426090E-04
  4.49344788446E-04  4.60720005923E-04  4.72383188401E-04  4.84341625749E-04
  4.96602792380E-04  5.09174351921E-04  5.22064162008E-04  5.35280279191E-04
  5.48830963973E-04  5.62724685974E-04  5.76970129221E-04  5.91576197581E-04
  6.06552020322E-04  6.21906957821E-04  6.37650607413E-04  6.53792809393E-04
  6.70343653160E-04  6.87313483533E-04  7.04712907207E-04  7.22552799388E-04
  7.40844310589E-04  7.59598873602E-04  7.78828210637E-04  7.98544340657E-04
  8.18759586885E-04  8.39486584508E-04  8.60738288573E-04  8.82527982088E-04
  9.04869284321E-04  9.27776159313E-04  9.51262924605E-04  9.75344260192E-04
  1.00003521769E-03  1.02535122976E-03  1.05130811972E-03  1.07792211148E-03
  1.10520983964E-03  1.13318835994E-03  1.16187515985E-03  1.19128816955E-03
  1.22144577315E-03  1.25236682011E-03  1.28407063710E-03  1.31657704004E-03
  1.34990634649E-03  1.38407938835E-03  1.41911752488E-03  1.45504265606E-03