<PP_INFO>
Generated using Vanderbilt code, version   7  3  6                              
Author: unknown    Generation date:   15    3   11                              
Automatically converted from original format                                    
    0        The Pseudo was generated with a Non-Relativistic Calculation
  8.00000000000E-01    Local Potential cutoff radius
nl pn  l   occ               Rcut            Rcut US             E pseu
1S  1  0  0.50      0.80000000000      0.80000000000     -0.22304565180
</PP_INFO>


<PP_HEADER>
   0                   Version Number
  ps                   Element
   US                  Ultrasoft pseudopotential
    F                  Nonlinear Core Correction
SLA  PW   PBE  PBE     PBE  Exchange-Correlation functional
    0.50000000000      Z valence
   -0.16362970745      Total energy
  0.0000000  0.0000000 Suggested cutoff for wfc and rho
    0                  Max angular momentum component
  573                  Number of points in mesh
    1    1             Number of Wavefunctions, Number of Projectors
 Wavefunctions         nl  l   occ
                       1S  0  0.50
</PP_HEADER>


<PP_MESH>
  <PP_R>
  0.00000000000E+00  8.47416181599E-05  1.70931776016E-04  2.58595234332E-04
  3.47757177124E-04  4.38443218892E-04  5.30679411981E-04  6.24492254066E-04
  7.19908695759E-04  8.16956148359E-04  9.15662491720E-04  1.01605608226E-03
  1.11816576113E-03  1.22202086245E-03  1.32765122178E-03  1.43508718469E-03
  1.54435961545E-03  1.65549990590E-03  1.76853998452E-03  1.88351232551E-03
  2.00044995822E-03  2.11938647656E-03  2.24035604869E-03  2.36339342684E-03
  2.48853395724E-03  2.61581359037E-03  2.74526889119E-03  2.87693704971E-03
  3.01085589165E-03  3.14706388928E-03  3.28560017254E-03  3.42650454023E-03
  3.56981747142E-03  3.71558013717E-03  3.86383441226E-03  4.01462288728E-03
  4.16798888084E-03  4.32397645201E-03  4.48263041302E-03  4.64399634207E-03
  4.80812059647E-03  4.97505032595E-03  5.14483348619E-03  5.31751885259E-03
  5.49315603434E-03  5.67179548858E-03  5.85348853498E-03  6.03828737044E-03
  6.22624508408E-03  6.41741567252E-03  6.61185405537E-03  6.80961609102E-03
  7.01075859266E-03  7.21533934465E-03  7.42341711908E-03  7.63505169267E-03
  7.85030386394E-03  8.06923547066E-03  8.29190940766E-03  8.51838964484E-03
  8.74874124560E-03  8.98303038549E-03  9.22132437125E-03  9.46369166013E-03
  9.71020187956E-03  9.96092584716E-03  1.02159355911E-02  1.04753043707E-02
  1.07391066976E-02  1.10074183571E-02  1.12803164300E-02  1.15578793145E-02
  1.18401867492E-02  1.21273198355E-02  1.24193610612E-02  1.27163943241E-02
  1.30185049561E-02  1.33257797477E-02  1.36383069730E-02  1.39561764150E-02
  1.42794793916E-02  1.46083087813E-02  1.49427590505E-02  1.52829262803E-02
  1.56289081942E-02  1.59808041860E-02  1.63387153487E-02  1.67027445032E-02
  1.70729962281E-02  1.74495768894E-02  1.78325946717E-02  1.82221596083E-02
  1.86183836139E-02  1.90213805159E-02  1.94312660875E-02  1.98481580808E-02
  2.02721762610E-02  2.07034424402E-02  2.11420805129E-02  2.15882164913E-02
  2.20419785415E-02  2.25034970208E-02  2.29729045143E-02  2.34503358739E-02
  2.39359282562E-02  2.44298211626E-02  2.49321564789E-02  2.54430785164E-02
  2.59627340531E-02  2.64912723760E-02  2.70288453238E-02  2.75756073310E-02
  2.81317154716E-02  2.86973295047E-02  2.92726119204E-02  2.98577279861E-02
  3.04528457943E-02  3.10581363109E-02  3.16737734241E-02  3.22999339946E-02
  3.29367979062E-02  3.35845481175E-02  3.42433707147E-02  3.49134549647E-02
  3.55949933698E-02  3.62881817228E-02  3.69932191632E-02  3.77103082347E-02
  3.84396549431E-02  3.91814688156E-02  3.99359629610E-02  4.07033541308E-02
  4.14838627817E-02  4.22777131387E-02  4.30851332596E-02  4.39063551006E-02
  4.47416145829E-02  4.55911516604E-02  4.64552103885E-02  4.73340389948E-02
  4.82278899495E-02  4.91370200389E-02  5.00616904383E-02  5.10021667877E-02
  5.19587192678E-02  5.29316226776E-02  5.39211565133E-02  5.49276050490E-02
  5.59512574177E-02  5.69924076951E-02  5.80513549834E-02  5.91284034978E-02
  6.02238626533E-02  6.13380471543E-02  6.24712770844E-02  6.36238779985E-02
  6.47961810167E-02  6.59885229189E-02  6.72012462419E-02  6.84346993776E-02
  6.96892366732E-02  7.09652185331E-02  7.22630115220E-02  7.35829884709E-02
  7.49255285836E-02  7.62910175458E-02  7.76798476361E-02  7.90924178386E-02
  8.05291339572E-02  8.19904087328E-02  8.34766619614E-02  8.49883206146E-02
  8.65258189628E-02  8.80895986995E-02  8.96801090684E-02  9.12978069923E-02
  9.29431572046E-02  9.46166323824E-02  9.63187132829E-02  9.80498888809E-02
  9.98106565097E-02  1.01601522004E-01  1.03422999844E-01  1.05275613306E-01
  1.07159894610E-01  1.09076385072E-01  1.11025635265E-01  1.13008205169E-01
  1.15024664339E-01  1.17075592064E-01  1.19161577536E-01  1.21283220019E-01
  1.23441129019E-01  1.25635924461E-01  1.27868236869E-01  1.30138707542E-01
  1.32447988742E-01  1.34796743881E-01  1.37185647712E-01  1.39615386520E-01
  1.42086658321E-01  1.44600173065E-01  1.47156652836E-01  1.49756832061E-01
  1.52401457720E-01  1.55091289564E-01  1.57827100330E-01  1.60609675963E-01
  1.63439815843E-01  1.66318333014E-01  1.69246054419E-01  1.72223821135E-01
  1.75252488618E-01  1.78332926944E-01  1.81466021064E-01  1.84652671056E-01
  1.87893792382E-01  1.91190316154E-01  1.94543189399E-01  1.97953375333E-01
  2.01421853636E-01  2.04949620735E-01  2.08537690089E-01  2.12187092481E-01
  2.15898876314E-01  2.19674107912E-01  2.23513871824E-01  2.27419271142E-01
  2.31391427811E-01  2.35431482955E-01  2.39540597203E-01  2.43719951024E-01
  2.47970745066E-01  2.52294200500E-01  2.56691559370E-01  2.61164084954E-01
  2.65713062120E-01  2.70339797702E-01  2.75045620872E-01  2.79831883522E-01
  2.84699960652E-01  2.89651250766E-01  2.94687176275E-01  2.99809183902E-01
  3.05018745101E-01  3.10317356478E-01  3.15706540223E-01  3.21187844541E-01
  3.26762844108E-01  3.32433140511E-01  3.38200362718E-01  3.44066167540E-01
  3.50032240109E-01  3.56100294362E-01  3.62272073534E-01  3.68549350658E-01
  3.74933929073E-01  3.81427642945E-01  3.88032357794E-01  3.94749971026E-01
  4.01582412480E-01  4.08531644986E-01  4.15599664923E-01  4.22788502796E-01
  4.30100223820E-01  4.37536928511E-01  4.45100753289E-01  4.52793871096E-01
  4.60618492016E-01  4.68576863909E-01  4.76671273064E-01  4.84904044846E-01
  4.93277544372E-01  5.01794177187E-01  5.10456389953E-01  5.19266671158E-01
  5.28227551824E-01  5.37341606239E-01  5.46611452694E-01  5.56039754238E-01
  5.65629219438E-01  5.75382603163E-01  5.85302707370E-01  5.95392381915E-01
  6.05654525364E-01  6.16092085833E-01  6.26708061832E-01  6.37505503125E-01
  6.48487511608E-01  6.59657242199E-01  6.71017903746E-01  6.82572759947E-01
  6.94325130289E-01  7.06278391000E-01  7.18435976020E-01  7.30801377990E-01
  7.43378149248E-01  7.56169902859E-01  7.69180313646E-01  7.82413119247E-01
  7.95872121192E-01  8.09561185992E-01  8.23484246251E-01  8.37645301793E-01
  8.52048420816E-01  8.66697741057E-01  8.81597470984E-01  8.96751890999E-01
  9.12165354675E-01  9.27842290001E-01  9.43787200657E-01  9.60004667308E-01
  9.76499348919E-01  9.93275984091E-01  1.01033939243E+00  1.02769447592E+00
  1.04534622034E+00  1.06329969669E+00  1.08156006267E+00  1.10013256412E+00
  1.11902253656E+00  1.13823540672E+00  1.15777669408E+00  1.17765201247E+00
  1.19786707170E+00  1.21842767914E+00  1.23933974148E+00  1.26060926634E+00
  1.28224236405E+00  1.30424524936E+00  1.32662424330E+00  1.34938577490E+00
  1.37253638312E+00  1.39608271868E+00  1.42003154598E+00  1.44438974506E+00
  1.46916431356E+00  1.49436236873E+00  1.51999114949E+00  1.54605801849E+00
  1.57257046423E+00  1.59953610324E+00  1.62696268221E+00  1.65485808027E+00
  1.68323031122E+00  1.71208752587E+00  1.74143801433E+00  1.77129020843E+00
  1.80165268413E+00  1.83253416397E+00  1.86394351961E+00  1.89588977435E+00
  1.92838210573E+00  1.96142984817E+00  1.99504249565E+00  2.02922970442E+00
  2.06400129581E+00  2.09936725904E+00  2.13533775404E+00  2.17192311446E+00
  2.20913385055E+00  2.24698065225E+00  2.28547439220E+00  2.32462612892E+00
  2.36444710993E+00  2.40494877504E+00  2.44614275958E+00  2.48804089781E+00
  2.53065522623E+00  2.57399798712E+00  2.61808163203E+00  2.66291882531E+00
  2.70852244784E+00  2.75490560066E+00  2.80208160873E+00  2.85006402483E+00
  2.89886663337E+00  2.94850345438E+00  2.99898874758E+00  3.05033701641E+00
  3.10256301223E+00  3.15568173857E+00  3.20970845539E+00  3.26465868354E+00
  3.32054820916E+00  3.37739308821E+00  3.43520965113E+00  3.49401450751E+00
  3.55382455084E+00  3.61465696339E+00  3.67652922113E+00  3.73945909877E+00
  3.80346467485E+00  3.86856433691E+00  3.93477678685E+00  4.00212104621E+00
  4.07061646170E+00  4.14028271072E+00  4.21113980705E+00  4.28320810654E+00
  4.35650831304E+00  4.43106148427E+00  4.50688903791E+00  4.58401275775E+00
  4.66245479996E+00  4.74223769939E+00  4.82338437615E+00  4.90591814210E+00
  4.98986270759E+00  5.07524218828E+00  5.16208111203E+00  5.25040442598E+00
  5.34023750373E+00  5.43160615256E+00  5.52453662094E+00  5.61905560597E+00
  5.71519026114E+00  5.81296820408E+00  5.91241752449E+00  6.01356679224E+00
  6.11644506556E+00  6.22108189938E+00  6.32750735384E+00  6.43575200291E+00
  6.54584694320E+00  6.65782380284E+00  6.77171475062E+00  6.88755250520E+00
  7.00537034453E+00  7.12520211540E+00  7.24708224315E+00  7.37104574159E+00
  7.49712822303E+00  7.62536590853E+00  7.75579563829E+00  7.88845488225E+00
  8.02338175085E+00  8.16061500595E+00  8.30019407203E+00  8.44215904745E+00
  8.58655071599E+00  8.73341055859E+00  8.88278076524E+00  9.03470424712E+00
  9.18922464888E+00  9.34638636127E+00  9.50623453379E+00  9.66881508773E+00
  9.83417472934E+00  1.00023609633E+01  1.01734221061E+01  1.03474073005E+01
  1.05243665289E+01  1.07043506284E+01  1.08874113049E+01  1.10736011481E+01
  1.12629736469E+01  1.14555832042E+01  1.16514851532E+01  1.18507357725E+01
  1.20533923031E+01  1.22595129643E+01  1.24691569705E+01  1.26823845484E+01
  1.28992569541E+01  1.31198364910E+01  1.33441865272E+01  1.35723715142E+01
  1.38044570051E+01  1.40405096735E+01  1.42805973329E+01  1.45247889557E+01
  1.47731546935E+01  1.50257658970E+01  1.52826951365E+01  1.55440162227E+01
  1.58098042282E+01  1.60801355087E+01  1.63550877252E+01  1.66347398661E+01
  1.69191722701E+01  1.72084666490E+01  1.75027061116E+01  1.78019751872E+01
  1.81063598500E+01  1.84159475438E+01  1.87308272071E+01  1.90510892988E+01
  1.93768258240E+01  1.97081303606E+01  2.00450980858E+01  2.03878258039E+01
  2.07364119741E+01  2.10909567384E+01  2.14515619507E+01  2.18183312058E+01
  2.21913698694E+01  2.25707851083E+01  2.29566859213E+01  2.33491831701E+01
  2.37483896115E+01  2.41544199300E+01  2.45673907701E+01  2.49874207703E+01
  2.54146305972E+01  2.58491429799E+01  2.62910827454E+01  2.67405768543E+01
  2.71977544377E+01  2.76627468339E+01  2.81356876262E+01  2.86167126812E+01
  2.91059601882E+01  2.96035706986E+01  3.01096871662E+01  3.06244549884E+01
  3.11480220481E+01  3.16805387561E+01  3.22221580939E+01  3.27730356585E+01
  3.33333297062E+01  3.39032011987E+01  3.44828138490E+01  3.50723341687E+01
  3.56719315155E+01  3.62817781422E+01  3.69020492458E+01  3.75329230183E+01
  3.81745806974E+01  3.88272066191E+01  3.94909882701E+01  4.01661163420E+01
  4.08527847861E+01  4.15511908690E+01  4.22615352291E+01  4.29840219347E+01
  4.37188585422E+01  4.44662561559E+01  4.52264294888E+01  4.59995969239E+01
  4.67859805773E+01  4.75858063618E+01  4.83993040517E+01  4.92267073494E+01
  5.00682539517E+01  5.09241856187E+01  5.17947482430E+01  5.26801919203E+01
  5.35807710216E+01  5.44967442658E+01  5.54283747943E+01  5.63759302464E+01
  5.73396828366E+01  5.83199094322E+01  5.93168916336E+01  6.03309158542E+01
  6.13622734037E+01  6.24112605711E+01  6.34781787102E+01  6.45633343259E+01
  6.56670391623E+01  6.67896102926E+01  6.79313702097E+01  6.90926469191E+01
  7.02737740332E+01  7.14750908669E+01  7.26969425352E+01  7.39396800527E+01
  7.52036604335E+01  7.64892467950E+01  7.77968084612E+01  7.91267210692E+01
  8.04793666771E+01
  </PP_R>
  <PP_RAB>
  8.40254975141E-05  8.54617961270E-05  8.69226462601E-05  8.84084675875E-05
  8.99196869569E-05  9.14567385123E-05  9.30200638189E-05  9.46101119898E-05
  9.62273398151E-05  9.78722118931E-05  9.95452007636E-05  1.01246787044E-04
  1.02977459567E-04  1.04737715522E-04  1.06528060595E-04  1.08349009119E-04
  1.10201084217E-04  1.12084817953E-04  1.14000751489E-04  1.15949435235E-04
  1.17931429009E-04  1.19947302202E-04  1.21997633933E-04  1.24083013223E-04
  1.26204039162E-04  1.28361321080E-04  1.30555478721E-04  1.32787142425E-04
  1.35056953305E-04  1.37365563434E-04  1.39713636032E-04  1.42101845654E-04
  1.44530878386E-04  1.47001432042E-04  1.49514216366E-04  1.52069953231E-04
  1.54669376850E-04  1.57313233989E-04  1.60002284175E-04  1.62737299922E-04
  1.65519066946E-04  1.68348384395E-04  1.71226065077E-04  1.74152935694E-04
  1.77129837079E-04  1.80157624439E-04  1.83237167599E-04  1.86369351250E-04
  1.89555075210E-04  1.92795254676E-04  1.96090820487E-04  1.99442719396E-04
  2.02851914339E-04  2.06319384712E-04  2.09846126651E-04  2.13433153322E-04
  2.17081495208E-04  2.20792200407E-04  2.24566334932E-04  2.28404983020E-04
  2.32309247439E-04  2.36280249811E-04  2.40319130925E-04  2.44427051076E-04
  2.48605190388E-04  2.52854749161E-04  2.57176948210E-04  2.61573029220E-04
  2.66044255100E-04  2.70591910346E-04  2.75217301412E-04  2.79921757082E-04
  2.84706628857E-04  2.89573291337E-04  2.94523142620E-04  2.99557604702E-04
  3.04678123888E-04  3.09886171203E-04  3.15183242818E-04  3.20570860480E-04
  3.26050571947E-04  3.31623951434E-04  3.37292600065E-04  3.43058146333E-04
  3.48922246568E-04  3.54886585412E-04  3.60952876306E-04  3.67122861975E-04
  3.73398314939E-04  3.79781038013E-04  3.86272864831E-04  3.92875660367E-04
  3.99591321479E-04  4.06421777444E-04  4.13368990522E-04  4.20434956511E-04
  4.27621705328E-04  4.34931301586E-04  4.42365845191E-04  4.49927471942E-04
  4.57618354150E-04  4.65440701256E-04  4.73396760469E-04  4.81488817410E-04
  4.89719196771E-04  4.98090262982E-04  5.06604420886E-04  5.15264116437E-04
  5.24071837398E-04  5.33030114056E-04  5.42141519952E-04  5.51408672615E-04
  5.60834234320E-04  5.70420912848E-04  5.80171462266E-04  5.90088683718E-04
  6.00175426231E-04  6.10434587529E-04  6.20869114872E-04  6.31482005898E-04
  6.42276309484E-04  6.53255126625E-04  6.64421611323E-04  6.75778971492E-04
  6.87330469884E-04  6.99079425019E-04  7.11029212145E-04  7.23183264204E-04
  7.35545072822E-04  7.48118189305E-04  7.60906225667E-04  7.73912855664E-04
  7.87141815848E-04  8.00596906644E-04  8.14281993439E-04  8.28201007694E-04
  8.42357948072E-04  8.56756881588E-04  8.71401944778E-04  8.86297344883E-04
  9.01447361065E-04  9.16856345631E-04  9.32528725282E-04  9.48469002391E-04
  9.64681756291E-04  9.81171644591E-04  9.97943404519E-04  1.01500185428E-03
  1.03235189442E-03  1.04999850930E-03  1.06794676842E-03  1.08620182798E-03
  1.10476893232E-03  1.12365341538E-03  1.14286070233E-03  1.16239631105E-03
  1.18226585373E-03  1.20247503851E-03  1.22302967111E-03  1.24393565646E-03
  1.26519900045E-03  1.28682581163E-03  1.30882230297E-03  1.33119479363E-03
  1.35394971080E-03  1.37709359151E-03  1.40063308457E-03  1.42457495241E-03
  1.44892607306E-03  1.47369344214E-03  1.49888417483E-03  1.52450550793E-03
  1.55056480197E-03  1.57706954327E-03  1.60402734613E-03  1.63144595501E-03
  1.65933324674E-03  1.68769723281E-03  1.71654606163E-03  1.74588802092E-03
  1.77573154005E-03  1.80608519249E-03  1.83695769826E-03  1.86835792643E-03
  1.90029489768E-03  1.93277778688E-03  1.96581592573E-03  1.99941880546E-03
  2.03359607953E-03  2.06835756639E-03  2.10371325236E-03  2.13967329444E-03
  2.17624802325E-03  2.21344794601E-03  2.25128374953E-03  2.28976630330E-03
  2.32890666263E-03  2.36871607177E-03  2.40920596721E-03  2.45038798090E-03
  2.49227394363E-03  2.53487588845E-03  2.57820605406E-03  2.62227688837E-03
  2.66710105209E-03  2.71269142234E-03  2.75906109633E-03  2.80622339519E-03
  2.85419186773E-03  2.90298029436E-03  2.95260269105E-03  3.00307331336E-03
  3.05440666052E-03  3.10661747961E-03  3.15972076979E-03  3.21373178660E-03
  3.26866604637E-03  3.32453933063E-03  3.38136769072E-03  3.43916745231E-03
  3.49795522016E-03  3.55774788285E-03  3.61856261767E-03  3.68041689550E-03
  3.74332848589E-03  3.80731546212E-03  3.87239620640E-03  3.93858941518E-03
  4.00591410448E-03  4.07438961539E-03  4.14403561959E-03  4.21487212504E-03
  4.28691948168E-03  4.36019838734E-03  4.43472989362E-03  4.51053541198E-03
  4.58763671989E-03  4.66605596704E-03  4.74581568179E-03  4.82693877754E-03
  4.90944855941E-03  4.99336873084E-03  5.07872340048E-03  5.16553708907E-03
  5.25383473652E-03  5.34364170901E-03  5.43498380637E-03  5.52788726940E-03
  5.62237878748E-03  5.71848550618E-03  5.81623503512E-03  5.91565545582E-03
  6.01677532987E-03  6.11962370704E-03  6.22423013369E-03  6.33062466120E-03
  6.43883785468E-03  6.54890080167E-03  6.66084512114E-03  6.77470297252E-03
  6.89050706497E-03  7.00829066676E-03  7.12808761485E-03  7.24993232457E-03
  7.37385979955E-03  7.49990564177E-03  7.62810606174E-03  7.75849788898E-03
  7.89111858253E-03  8.02600624174E-03  8.16319961724E-03  8.30273812203E-03
  8.44466184281E-03  8.58901155153E-03  8.73582871706E-03  8.88515551714E-03
  9.03703485046E-03  9.19151034902E-03  9.34862639064E-03  9.50842811172E-03
  9.67096142019E-03  9.83627300875E-03  1.00044103682E-02  1.01754218011E-02
  1.03493564359E-02  1.05262642405E-02  1.07061960370E-02  1.08892035166E-02
  1.10753392536E-02  1.12646567212E-02  1.14572103068E-02  1.16530553271E-02
  1.18522480448E-02  1.20548456840E-02  1.22609064470E-02  1.24704895312E-02
  1.26836551458E-02  1.29004645290E-02  1.31209799661E-02  1.33452648068E-02
  1.35733834838E-02  1.38054015313E-02  1.40413856035E-02  1.42814034940E-02
  1.45255241554E-02  1.47738177188E-02  1.50263555142E-02  1.52832100907E-02
  1.55444552378E-02  1.58101660060E-02  1.60804187290E-02  1.63552910451E-02
  1.66348619199E-02  1.69192116685E-02  1.72084219793E-02  1.75025759368E-02
  1.78017580456E-02  1.81060542550E-02  1.84155519834E-02  1.87303401436E-02
  1.90505091680E-02  1.93761510351E-02  1.97073592954E-02  2.00442290987E-02
  2.03868572212E-02  2.07353420932E-02  2.10897838277E-02  2.14502842491E-02
  2.18169469220E-02  2.21898771816E-02  2.25691821636E-02  2.29549708348E-02
  2.33473540249E-02  2.37464444581E-02  2.41523567853E-02  2.45652076171E-02
  2.49851155578E-02  2.54122012387E-02  2.58465873533E-02  2.62883986922E-02
  2.67377621794E-02  2.71948069083E-02  2.76596641790E-02  2.81324675359E-02
  2.86133528064E-02  2.91024581394E-02  2.95999240455E-02  3.01058934370E-02
  3.06205116691E-02  3.11439265817E-02  3.16762885418E-02  3.22177504865E-02
  3.27684679676E-02  3.33285991953E-02  3.38983050847E-02  3.44777493012E-02
  3.50670983079E-02  3.56665214134E-02  3.62761908203E-02  3.68962816748E-02
  3.75269721171E-02  3.81684433323E-02  3.88208796026E-02  3.94844683605E-02
  4.01594002421E-02  4.08458691422E-02  4.15440722701E-02  4.22542102061E-02
  4.29764869590E-02  4.37111100250E-02  4.44582904471E-02  4.52182428757E-02
  4.59911856305E-02  4.67773407629E-02  4.75769341201E-02  4.83901954099E-02
  4.92173582664E-02  5.00586603176E-02  5.09143432532E-02  5.17846528943E-02
  5.26698392642E-02  5.35701566597E-02  5.44858637245E-02  5.54172235237E-02
  5.63645036188E-02  5.73279761451E-02  5.83079178896E-02  5.93046103706E-02
  6.03183399186E-02  6.13493977584E-02  6.23980800930E-02  6.34646881886E-02
  6.45495284610E-02  6.56529125638E-02  6.67751574780E-02  6.79165856028E-02
  6.90775248484E-02  7.02583087301E-02  7.14592764644E-02  7.26807730660E-02
  7.39231494473E-02  7.51867625190E-02  7.64719752926E-02  7.77791569849E-02
  7.91086831239E-02  8.04609356567E-02  8.18363030594E-02  8.32351804484E-02
  8.46579696940E-02  8.61050795361E-02  8.75769257013E-02  8.90739310227E-02
  9.05965255607E-02  9.21451467274E-02  9.37202394117E-02  9.53222561072E-02
  9.69516570423E-02  9.86089103124E-02  1.00294492014E-01  1.02008886383E-01
  1.03752585931E-01  1.05526091589E-01  1.07329912851E-01  1.09164567920E-01
  1.11030583857E-01  1.12928496732E-01  1.14858851779E-01  1.16822203552E-01
  1.18819116083E-01  1.20850163047E-01  1.22915927924E-01  1.25017004169E-01
  1.27153995379E-01  1.29327515473E-01  1.31538188858E-01  1.33786650620E-01
  1.36073546698E-01  1.38399534073E-01  1.40765280956E-01  1.43171466980E-01
  1.45618783396E-01  1.48107933270E-01  1.50639631688E-01  1.53214605957E-01
  1.55833595818E-01  1.58497353655E-01  1.61206644714E-01  1.63962247323E-01
  1.66764953114E-01  1.69615567248E-01  1.72514908652E-01  1.75463810251E-01
  1.78463119208E-01  1.81513697165E-01  1.84616420495E-01  1.87772180550E-01
  1.90981883919E-01  1.94246452688E-01  1.97566824704E-01  2.00943953845E-01
  2.04378810296E-01  2.07872380824E-01  2.11425669065E-01  2.15039695809E-01
  2.18715499297E-01  2.22454135515E-01  2.26256678501E-01  2.30124220653E-01
  2.34057873041E-01  2.38058765726E-01  2.42128048088E-01  2.46266889153E-01
  2.50476477930E-01  2.54758023752E-01  2.59112756624E-01  2.63541927577E-01
  2.68046809026E-01  2.72628695137E-01  2.77288902196E-01  2.82028768991E-01
  2.86849657194E-01  2.91752951752E-01  2.96740061288E-01  3.01812418501E-01
  3.06971480582E-01  3.12218729629E-01  3.17555673075E-01  3.22983844121E-01
  3.28504802176E-01  3.34120133304E-01  3.39831450680E-01  3.45640395056E-01
  3.51548635229E-01  3.57557868522E-01  3.63669821272E-01  3.69886249324E-01
  3.76208938538E-01  3.82639705300E-01  3.89180397045E-01  3.95832892787E-01
  4.02599103659E-01  4.09480973464E-01  4.16480479228E-01  4.23599631774E-01
  4.30840476298E-01  4.38205092954E-01  4.45695597453E-01  4.53314141672E-01
  4.61062914273E-01  4.68944141327E-01  4.76960086958E-01  4.85113053992E-01
  4.93405384620E-01  5.01839461067E-01  5.10417706280E-01  5.19142584623E-01
  5.28016602585E-01  5.37042309499E-01  5.46222298276E-01  5.55559206150E-01
  5.65055715433E-01  5.74714554289E-01  5.84538497515E-01  5.94530367340E-01
  6.04693034235E-01  6.15029417738E-01  6.25542487290E-01  6.36235263095E-01
  6.47110816979E-01  6.58172273279E-01  6.69422809736E-01  6.80865658413E-01
  6.92504106618E-01  7.04341497853E-01  7.16381232770E-01  7.28626770153E-01
  7.41081627907E-01  7.53749384073E-01  7.66633677851E-01  7.79738210649E-01
  7.93066747147E-01  8.06623116375E-01  8.20411212815E-01  8.34434997521E-01
  8.48698499255E-01  8.63205815645E-01  8.77961114361E-01  8.92968634317E-01
  9.08232686881E-01  9.23757657122E-01  9.39548005062E-01  9.55608266962E-01
  9.71943056626E-01  9.88557066722E-01  1.00545507013E+00  1.02264192133E+00
  1.04012255776E+00  1.05790200128E+00  1.07598535957E+00  1.09437782763E+00
  1.11308468927E+00  1.13211131859E+00  1.15146318159E+00  1.17114583769E+00
  1.19116494131E+00  1.21152624358E+00  1.23223559389E+00  1.25329894164E+00
  1.27472233793E+00  1.29651193728E+00  1.31867399942E+00  1.34121489108E+00
  1.36414108782E+00
  </PP_RAB>
</PP_MESH>


<PP_LOCAL>
 -3.06979292546E+00 -3.06979292546E+00 -3.06979274676E+00 -3.06979244427E+00
 -3.06979201290E+00 -3.06979144252E+00 -3.06979072816E+00 -3.06978986218E+00
 -3.06978883721E+00 -3.06978764549E+00 -3.06978627907E+00 -3.06978472960E+00
 -3.06978298846E+00 -3.06978104666E+00 -3.06977889490E+00 -3.06977652348E+00
 -3.06977392235E+00 -3.06977108104E+00 -3.06976798872E+00 -3.06976463411E+00
 -3.06976100551E+00 -3.06975709077E+00 -3.06975287727E+00 -3.06974835191E+00
 -3.06974350110E+00 -3.06973831071E+00 -3.06973276612E+00 -3.06972685209E+00
 -3.06972055287E+00 -3.06971385206E+00 -3.06970673269E+00 -3.06969917711E+00
 -3.06969116704E+00 -3.06968268348E+00 -3.06967370677E+00 -3.06966421645E+00
 -3.06965419137E+00 -3.06964360953E+00 -3.06963244814E+00 -3.06962068356E+00
 -3.06960829129E+00 -3.06959524587E+00 -3.06958152098E+00 -3.06956708925E+00
 -3.06955192235E+00 -3.06953599088E+00 -3.06951926440E+00 -3.06950171128E+00
 -3.06948329881E+00 -3.06946399302E+00 -3.06944375874E+00 -3.06942255948E+00
 -3.06940035746E+00 -3.06937711347E+00 -3.06935278694E+00 -3.06932733574E+00
 -3.06930071630E+00 -3.06927288339E+00 -3.06924379020E+00 -3.06921338819E+00
 -3.06918162709E+00 -3.06914845478E+00 -3.06911381731E+00 -3.06907765872E+00
 -3.06903992111E+00 -3.06900054443E+00 -3.06895946653E+00 -3.06891662295E+00
 -3.06887194704E+00 -3.06882536962E+00 -3.06877681916E+00 -3.06872622148E+00
 -3.06867349983E+00 -3.06861857463E+00 -3.06856136356E+00 -3.06850178128E+00
 -3.06843973950E+00 -3.06837514670E+00 -3.06830790821E+00 -3.06823792589E+00
 -3.06816509825E+00 -3.06808932005E+00 -3.06801048251E+00 -3.06792847282E+00
 -3.06784317435E+00 -3.06775446622E+00 -3.06766222343E+00 -3.06756631641E+00
 -3.06746661121E+00 -3.06736296902E+00 -3.06725524630E+00 -3.06714329432E+00
 -3.06702695932E+00 -3.06690608196E+00 -3.06678049753E+00 -3.06665003538E+00
 -3.06651451910E+00 -3.06637376592E+00 -3.06622758693E+00 -3.06607578642E+00
 -3.06591816213E+00 -3.06575450454E+00 -3.06558459708E+00 -3.06540821549E+00
 -3.06522512798E+00 -3.06503509449E+00 -3.06483786697E+00 -3.06463318853E+00
 -3.06442079374E+00 -3.06420040776E+00 -3.06397174662E+00 -3.06373451632E+00
 -3.06348841310E+00 -3.06323312252E+00 -3.06296831975E+00 -3.06269366852E+00
 -3.06240882155E+00 -3.06211341932E+00 -3.06180709059E+00 -3.06148945111E+00
 -3.06116010409E+00 -3.06081863893E+00 -3.06046463169E+00 -3.06009764368E+00
 -3.05971722206E+00 -3.05932289829E+00 -3.05891418877E+00 -3.05849059323E+00
 -3.05805159535E+00 -3.05759666116E+00 -3.05712523960E+00 -3.05663676087E+00
 -3.05613063707E+00 -3.05560626036E+00 -3.05506300373E+00 -3.05450021906E+00
 -3.05391723788E+00 -3.05331336936E+00 -3.05268790115E+00 -3.05204009723E+00
 -3.05136919882E+00 -3.05067442210E+00 -3.04995495925E+00 -3.04920997599E+00
 -3.04843861271E+00 -3.04763998192E+00 -3.04681316944E+00 -3.04595723172E+00
 -3.04507119717E+00 -3.04415406329E+00 -3.04320479817E+00 -3.04222233744E+00
 -3.04120558592E+00 -3.04015341444E+00 -3.03906466161E+00 -3.03793813052E+00
 -3.03677259067E+00 -3.03556677449E+00 -3.03431937953E+00 -3.03302906479E+00
 -3.03169445309E+00 -3.03031412729E+00 -3.02888663294E+00 -3.02741047426E+00
 -3.02588411712E+00 -3.02430598491E+00 -3.02267446173E+00 -3.02098788819E+00
 -3.01924456494E+00 -3.01744274832E+00 -3.01558065430E+00 -3.01365645397E+00
 -3.01166827794E+00 -3.00961421174E+00 -3.00749230067E+00 -3.00530054514E+00
 -3.00303690603E+00 -3.00069929996E+00 -2.99828560531E+00 -2.99579365735E+00
 -2.99322125500E+00 -2.99056615592E+00 -2.98782608394E+00 -2.98499872425E+00
 -2.98208173161E+00 -2.97907272552E+00 -2.97596929935E+00 -2.97276901559E+00
 -2.96946941589E+00 -2.96606801641E+00 -2.96256231891E+00 -2.95894980616E+00
 -2.95522795415E+00 -2.95139422758E+00 -2.94744609328E+00 -2.94338101571E+00
 -2.93919647163E+00 -2.93488994565E+00 -2.93045894607E+00 -2.92590100049E+00
 -2.92121367282E+00 -2.91639455874E+00 -2.91144130386E+00 -2.90635159897E+00
 -2.90112319914E+00 -2.89575391852E+00 -2.89024165028E+00 -2.88458436055E+00
 -2.87878010900E+00 -2.87282704158E+00 -2.86672341117E+00 -2.86046756878E+00
 -2.85405798381E+00 -2.84749323289E+00 -2.84077201930E+00 -2.83389315863E+00
 -2.82685559656E+00 -2.81965839055E+00 -2.81230072501E+00 -2.80478188796E+00
 -2.79710128262E+00 -2.78925839792E+00 -2.78125281536E+00 -2.77308417211E+00
 -2.76475216202E+00 -2.75625649005E+00 -2.74759686623E+00 -2.73877295024E+00
 -2.72978433724E+00 -2.72063049154E+00 -2.71131072343E+00 -2.70182411117E+00
 -2.69216946830E+00 -2.68234525351E+00 -2.67234952850E+00 -2.66217985587E+00
 -2.65183324809E+00 -2.64130605449E+00 -2.63059390268E+00 -2.61969157647E+00
 -2.60859295229E+00 -2.59729087086E+00 -2.58577707218E+00 -2.57404206522E+00
 -2.56207506640E+00 -2.54986387289E+00 -2.53739481110E+00 -2.52465262094E+00
 -2.51162042270E+00 -2.49827962167E+00 -2.48460990401E+00 -2.47058917361E+00
 -2.45619359037E+00 -2.44139755406E+00 -2.42617380161E+00 -2.41049345628E+00
 -2.39432620401E+00 -2.37764042965E+00 -2.36040349590E+00 -2.34258199153E+00
 -2.32414213916E+00 -2.30505018270E+00 -2.28527295174E+00 -2.26477841656E+00
 -2.24353643790E+00 -2.22151951866E+00 -2.19870376889E+00 -2.17506988510E+00
 -2.15060436233E+00 -2.12530073361E+00 -2.09916105865E+00 -2.07219744523E+00
 -2.04443381667E+00 -2.01590768026E+00 -1.98667207363E+00 -1.95679737998E+00
 -1.92637310510E+00 -1.89550919421E+00 -1.86433684890E+00 -1.83300828141E+00
 -1.80169523700E+00 -1.77058564263E+00 -1.73987820971E+00 -1.70977446817E+00
 -1.68046829757E+00 -1.65213278593E+00 -1.62490487129E+00 -1.59886795440E+00
 -1.57403319242E+00 -1.55031989136E+00 -1.52753622068E+00 -1.50536209591E+00
 -1.48333871938E+00 -1.46087252462E+00 -1.43726670226E+00 -1.41179822541E+00
 -1.38386309767E+00 -1.35321479174E+00 -1.32032767904E+00 -1.28724843039E+00
 -1.25807013997E+00 -1.23481769077E+00 -1.21422532239E+00 -1.19384875005E+00
 -1.17364099619E+00 -1.15380478321E+00 -1.13430451394E+00 -1.11513563567E+00
 -1.09629244750E+00 -1.07776935711E+00 -1.05956087016E+00 -1.04166158853E+00
 -1.02406620857E+00 -1.00676951935E+00 -9.89766401014E-01 -9.73051823123E-01
 -9.56620843030E-01 -9.40468604304E-01 -9.24590335168E-01 -9.08981346977E-01
 -8.93637032722E-01 -8.78552865557E-01 -8.63724397365E-01 -8.49147257343E-01
 -8.34817150617E-01 -8.20729856878E-01 -8.06881229056E-01 -7.93267192004E-01
 -7.79883741219E-01 -7.66726941578E-01 -7.53792926104E-01 -7.41077894753E-01
 -7.28578113224E-01 -7.16289911787E-01 -7.04209684143E-01 -6.92333886291E-01
 -6.80659035432E-01 -6.69181708878E-01 -6.57898542996E-01 -6.46806232155E-01
 -6.35901527711E-01 -6.25181236992E-01 -6.14642222319E-01 -6.04281400031E-01
 -5.94095739538E-01 -5.84082262383E-01 -5.74238041330E-01 -5.64560199461E-01