<PP_INFO>
Generated using Vanderbilt code, version   7  3  6                              
Author: unknown    Generation date:   15    3   11                              
Automatically converted from original format                                    
    0        The Pseudo was generated with a Non-Relativistic Calculation
  8.00000000000E-01    Local Potential cutoff radius
nl pn  l   occ               Rcut            Rcut US             E pseu
1S  1  0  1.50      0.80000000000      0.80000000000     -0.78913604934
</PP_INFO>


<PP_HEADER>
   0                   Version Number
  ps                   Element
   US                  Ultrasoft pseudopotential
    F                  Nonlinear Core Correction
SLA  PW   PBE  PBE     PBE  Exchange-Correlation functional
    1.50000000000      Z valence
   -2.65523896913      Total energy
  0.0000000  0.0000000 Suggested cutoff for wfc and rho
    0                  Max angular momentum component
  639                  Number of points in mesh
    1    1             Number of Wavefunctions, Number of Projectors
 Wavefunctions         nl  l   occ
                       1S  0  1.50
</PP_HEADER>


<PP_MESH>
  <PP_R>
  0.00000000000E+00  2.82472060533E-05  5.69772586719E-05  8.61984114440E-05
  1.15919059041E-04  1.46147739631E-04  1.76893137327E-04  2.08164084689E-04
  2.39969565253E-04  2.72318716120E-04  3.05220830573E-04  3.38685360755E-04
  3.72721920376E-04  4.07340287483E-04  4.42550407261E-04  4.78362394897E-04
  5.14786538482E-04  5.51833301968E-04  5.89513328172E-04  6.27837441838E-04
  6.66816652741E-04  7.06462158854E-04  7.46785349565E-04  7.87797808945E-04
  8.29511319081E-04  8.71937863457E-04  9.15089630398E-04  9.58979016571E-04
  1.00361863055E-03  1.04902129643E-03  1.09520005751E-03  1.14216818008E-03
  1.18993915714E-03  1.23852671239E-03  1.28794480409E-03  1.33820762909E-03
  1.38932962695E-03  1.44132548400E-03  1.49421013767E-03  1.54799878069E-03
  1.60270686549E-03  1.65835010865E-03  1.71494449540E-03  1.77250628420E-03
  1.83105201145E-03  1.89059849619E-03  1.95116284499E-03  2.01276245681E-03
  2.07541502803E-03  2.13913855751E-03  2.20395135179E-03  2.26987203034E-03
  2.33691953089E-03  2.40511311488E-03  2.47447237303E-03  2.54501723089E-03
  2.61676795465E-03  2.68974515689E-03  2.76396980255E-03  2.83946321495E-03
  2.91624708187E-03  2.99434346183E-03  3.07377479042E-03  3.15456388671E-03
  3.23673395985E-03  3.32030861572E-03  3.40531186369E-03  3.49176812356E-03
  3.57970223252E-03  3.66913945236E-03  3.76010547665E-03  3.85262643817E-03
  3.94672891641E-03  4.04243994518E-03  4.13978702041E-03  4.23879810804E-03
  4.33950165202E-03  4.44192658255E-03  4.54610232432E-03  4.65205880501E-03
  4.75982646385E-03  4.86943626043E-03  4.98091968350E-03  5.09430876011E-03
  5.20963606473E-03  5.32693472867E-03  5.44623844957E-03  5.56758150107E-03
  5.69099874269E-03  5.81652562982E-03  5.94419822389E-03  6.07405320278E-03
  6.20612787130E-03  6.34046017196E-03  6.47708869582E-03  6.61605269361E-03
  6.75739208701E-03  6.90114748008E-03  7.04736017097E-03  7.19607216376E-03
  7.34732618052E-03  7.50116567360E-03  7.65763483811E-03  7.81677862462E-03
  7.97864275206E-03  8.14327372086E-03  8.31071882631E-03  8.48102617214E-03
  8.65424468438E-03  8.83042412533E-03  9.00961510794E-03  9.19186911033E-03
  9.37723849052E-03  9.56577650157E-03  9.75753730679E-03  9.95257599535E-03
  1.01509485981E-02  1.03527121036E-02  1.05579244747E-02  1.07666446649E-02
  1.09789326354E-02  1.11948493725E-02  1.14144569049E-02  1.16378183216E-02
  1.18649977899E-02  1.20960605743E-02  1.23310730544E-02  1.25701027449E-02
  1.28132183144E-02  1.30604896052E-02  1.33119876537E-02  1.35677847103E-02
  1.38279542606E-02  1.40925710462E-02  1.43617110865E-02  1.46354517002E-02
  1.49138715276E-02  1.51970505535E-02  1.54850701295E-02  1.57780129983E-02
  1.60759633165E-02  1.63790066796E-02  1.66872301461E-02  1.70007222626E-02
  1.73195730893E-02  1.76438742259E-02  1.79737188378E-02  1.83092016830E-02
  1.86504191392E-02  1.89974692317E-02  1.93504516611E-02  1.97094678326E-02
  2.00746208844E-02  2.04460157181E-02  2.08237590281E-02  2.12079593328E-02
  2.15987270056E-02  2.19961743063E-02  2.24004154140E-02  2.28115664592E-02
  2.32297455577E-02  2.36550728444E-02  2.40876705073E-02  2.45276628236E-02
  2.49751761945E-02  2.54303391819E-02  2.58932825454E-02  2.63641392795E-02
  2.68430446524E-02  2.73301362443E-02  2.78255539871E-02  2.83294402049E-02
  2.88419396543E-02  2.93631995665E-02  2.98933696895E-02  3.04326023308E-02
  3.09810524015E-02  3.15388774608E-02  3.21062377610E-02  3.26832962936E-02
  3.32702188366E-02  3.38671740013E-02  3.44743332814E-02  3.50918711020E-02
  3.57199648699E-02  3.63587950241E-02  3.70085450883E-02  3.76694017230E-02
  3.83415547796E-02  3.90251973546E-02  3.97205258453E-02  4.04277400062E-02
  4.11470430062E-02  4.18786414870E-02  4.26227456229E-02  4.33795691805E-02
  4.41493295806E-02  4.49322479604E-02  4.57285492373E-02  4.65384621732E-02
  4.73622194404E-02  4.82000576884E-02  4.90522176120E-02  4.99189440202E-02
  5.08004859067E-02  5.16970965215E-02  5.26090334434E-02  5.35365586543E-02
  5.44799386142E-02  5.54394443379E-02  5.64153514729E-02  5.74079403783E-02
  5.84174962059E-02  5.94443089813E-02  6.04886736881E-02  6.15508903520E-02
  6.26312641274E-02  6.37301053847E-02  6.48477297997E-02  6.59844584443E-02
  6.71406178786E-02  6.83165402450E-02  6.95125633630E-02  7.07290308271E-02
  7.19662921047E-02  7.32247026372E-02  7.45046239414E-02  7.58064237141E-02
  7.71304759371E-02  7.84771609849E-02  7.98468657342E-02  8.12399836747E-02
  8.26569150220E-02  8.40980668332E-02  8.55638531234E-02  8.70546949845E-02
  8.85710207066E-02  9.01132659007E-02  9.16818736241E-02  9.32772945073E-02
  9.48999868839E-02  9.65504169220E-02  9.82290587583E-02  9.99363946340E-02
  1.01672915034E-01  1.03439118826E-01  1.05235513408E-01  1.07062614847E-01
  1.08920948036E-01  1.10811046837E-01  1.12733454239E-01  1.14688722513E-01
  1.16677413370E-01  1.18700098121E-01  1.20757357845E-01  1.22849783553E-01
  1.24977976358E-01  1.27142547648E-01  1.29344119265E-01  1.31583323675E-01
  1.33860804160E-01  1.36177214995E-01  1.38533221641E-01  1.40929500932E-01
  1.43366741273E-01  1.45845642837E-01  1.48366917763E-01  1.50931290365E-01
  1.53539497339E-01  1.56192287970E-01  1.58890424355E-01  1.61634681615E-01
  1.64425848124E-01  1.67264725729E-01  1.70152129984E-01  1.73088890386E-01
  1.76075850608E-01  1.79113868746E-01  1.82203817565E-01  1.85346584746E-01
  1.88543073146E-01  1.91794201054E-01  1.95100902457E-01  1.98464127305E-01
  2.01884841788E-01  2.05364028611E-01  2.08902687277E-01  2.12501834375E-01
  2.16162503869E-01  2.19885747400E-01  2.23672634582E-01  2.27524253316E-01
  2.31441710096E-01  2.35426130333E-01  2.39478658673E-01  2.43600459330E-01
  2.47792716416E-01  2.52056634286E-01  2.56393437882E-01  2.60804373082E-01
  2.65290707064E-01  2.69853728664E-01  2.74494748750E-01  2.79215100598E-01
  2.84016140272E-01  2.88899247019E-01  2.93865823661E-01  2.98917297000E-01
  3.04055118225E-01  3.09280763334E-01  3.14595733552E-01  3.20001555769E-01
  3.25499782973E-01  3.31091994697E-01  3.36779797476E-01  3.42564825305E-01
  3.48448740112E-01  3.54433232230E-01  3.60520020890E-01  3.66710854706E-01
  3.73007512187E-01  3.79411802239E-01  3.85925564692E-01  3.92550670824E-01
  3.99289023899E-01  4.06142559715E-01  4.13113247161E-01  4.20203088781E-01
  4.27414121349E-01  4.34748416454E-01  4.42208081099E-01  4.49795258300E-01
  4.57512127706E-01  4.65360906225E-01  4.73343848659E-01  4.81463248353E-01
  4.89721437853E-01  4.98120789577E-01  5.06663716497E-01  5.15352672830E-01
  5.24190154745E-01  5.33178701079E-01  5.42320894069E-01  5.51619360088E-01
  5.61076770408E-01  5.70695841958E-01  5.80479338111E-01  5.90430069477E-01
  6.00550894709E-01  6.10844721323E-01  6.21314506537E-01  6.31963258117E-01
  6.42794035244E-01  6.53809949391E-01  6.65014165216E-01  6.76409901473E-01
  6.88000431938E-01  6.99789086345E-01  7.11779251347E-01  7.23974371486E-01
  7.36377950185E-01  7.48993550750E-01  7.61824797401E-01  7.74875376305E-01
  7.88149036643E-01  8.01649591679E-01  8.15380919861E-01  8.29346965936E-01
  8.43551742077E-01  8.57999329041E-01  8.72693877342E-01  8.87639608437E-01
  9.02840815948E-01  9.18301866886E-01  9.34027202912E-01  9.50021341610E-01
  9.66288877789E-01  9.82834484795E-01  9.99662915861E-01  1.01677900547E+00
  1.03418767074E+00  1.05189391286E+00  1.06990281846E+00  1.08821956118E+00
  1.10684940305E+00  1.12579769607E+00  1.14506988371E+00  1.16467150250E+00
  1.18460818361E+00  1.20488565446E+00  1.22550974038E+00  1.24648636626E+00
  1.26782155828E+00  1.28952144564E+00  1.31159226228E+00  1.33404034874E+00
  1.35687215390E+00  1.38009423691E+00  1.40371326902E+00  1.42773603551E+00
  1.45216943768E+00  1.47702049476E+00  1.50229634597E+00  1.52800425258E+00
  1.55415159999E+00  1.58074589980E+00  1.60779479205E+00  1.63530604737E+00
  1.66328756920E+00  1.69174739609E+00  1.72069370401E+00  1.75013480866E+00
  1.78007916791E+00  1.81053538419E+00  1.84151220698E+00  1.87301853532E+00
  1.90506342038E+00  1.93765606803E+00  1.97080584150E+00  2.00452226408E+00
  2.03881502185E+00  2.07369396646E+00  2.10916911795E+00  2.14525066764E+00
  2.18194898107E+00  2.21927460095E+00  2.25723825021E+00  2.29585083507E+00
  2.33512344818E+00  2.37506737180E+00  2.41569408105E+00  2.45701524720E+00
  2.49904274101E+00  2.54178863618E+00  2.58526521276E+00  2.62948496075E+00
  2.67446058362E+00  2.72020500198E+00  2.76673135734E+00  2.81405301582E+00
  2.86218357200E+00  2.91113685286E+00  2.96092692175E+00  3.01156808237E+00
  3.06307488296E+00  3.11546212042E+00  3.16874484460E+00  3.22293836258E+00
  3.27805824311E+00  3.33412032108E+00  3.39114070204E+00  3.44913576682E+00
  3.50812217630E+00  3.56811687613E+00  3.62913710162E+00  3.69120038270E+00
  3.75432454896E+00  3.81852773475E+00  3.88382838439E+00  3.95024525750E+00
  4.01779743437E+00  4.08650432142E+00  4.15638565682E+00  4.22746151613E+00
  4.29975231805E+00  4.37327883034E+00  4.44806217574E+00  4.52412383807E+00
  4.60148566835E+00  4.68016989117E+00  4.76019911095E+00  4.84159631856E+00
  4.92438489784E+00  5.00858863233E+00  5.09423171215E+00  5.18133874090E+00
  5.26993474274E+00  5.36004516958E+00  5.45169590840E+00  5.54491328870E+00
  5.63972409002E+00  5.73615554967E+00  5.83423537054E+00  5.93399172907E+00
  6.03545328333E+00  6.13864918125E+00  6.24360906903E+00  6.35036309960E+00
  6.45894194135E+00  6.56937678685E+00  6.68169936192E+00  6.79594193465E+00
  6.91213732472E+00  7.03031891282E+00  7.15052065023E+00  7.27277706859E+00
  7.39712328979E+00  7.52359503611E+00  7.65222864043E+00  7.78306105669E+00
  7.91612987051E+00  8.05147331000E+00  8.18913025669E+00  8.32914025678E+00
  8.47154353241E+00  8.61638099330E+00  8.76369424845E+00  8.91352561810E+00
  9.06591814591E+00  9.22091561131E+00  9.37856254205E+00  9.53890422707E+00
  9.70198672941E+00  9.86785689953E+00  1.00365623887E+01  1.02081516628E+01
  1.03826740160E+01  1.05601795854E+01  1.07407193646E+01  1.09243452195E+01
  1.11111099021E+01  1.13010670662E+01  1.14942712830E+01  1.16907780562E+01
  1.18906438385E+01  1.20939260474E+01  1.23006830819E+01  1.25109743394E+01
  1.27248602325E+01  1.29424022064E+01  1.31636627567E+01  1.33887054473E+01
  1.36175949287E+01  1.38503969563E+01  1.40871784097E+01  1.43280073116E+01
  1.45729528474E+01  1.48220853853E+01  1.50754764963E+01  1.53331989746E+01
  1.55953268591E+01  1.58619354539E+01  1.61331013506E+01  1.64089024498E+01
  1.66894179839E+01  1.69747285396E+01  1.72649160810E+01  1.75600639734E+01
  1.78602570072E+01  1.81655814219E+01  1.84761249314E+01  1.87919767488E+01
  1.91132276122E+01  1.94399698107E+01  1.97722972112E+01  2.01103052847E+01
  2.04540911346E+01  2.08037535237E+01  2.11593929034E+01  2.15211114420E+01
  2.18890130541E+01  2.22632034309E+01  2.26437900699E+01  2.30308823064E+01
  2.34245913444E+01  2.38250302890E+01  2.42323141784E+01  2.46465600176E+01
  2.50678868112E+01  2.54964155983E+01  2.59322694871E+01  2.63755736897E+01
  2.68264555590E+01  2.72850446247E+01  2.77514726304E+01  2.82258735718E+01
  2.87083837353E+01  2.91991417367E+01  2.96982885612E+01  3.02059676040E+01
  3.07223247115E+01  3.12475082232E+01  3.17816690140E+01  3.23249605381E+01
  3.28775388726E+01  3.34395627624E+01  3.40111936664E+01  3.45925958028E+01
  3.51839361974E+01  3.57853847307E+01  3.63971141873E+01  3.70193003052E+01
  3.76521218265E+01  3.82957605485E+01  3.89504013762E+01  3.96162323753E+01
  4.02934448260E+01  4.09822332784E+01  4.16827956082E+01  4.23953330732E+01
  4.31200503718E+01  4.38571557012E+01  4.46068608175E+01  4.53693810964E+01
  4.61449355953E+01  4.69337471160E+01  4.77360422688E+01  4.85520515375E+01
  4.93820093459E+01  5.02261541246E+01  5.10847283803E+01  5.19579787646E+01
  5.28461561456E+01  5.37495156793E+01  5.46683168835E+01  5.56028237119E+01
  5.65533046305E+01  5.75200326938E+01  5.85032856241E+01  5.95033458911E+01
  6.05205007926E+01  6.15550425377E+01  6.26072683300E+01  6.36774804537E+01
  6.47659863602E+01  6.58730987559E+01  6.69991356929E+01  6.81444206599E+01
  6.93092826750E+01  7.04940563806E+01  7.16990821392E+01  7.29247061313E+01
  7.41712804551E+01  7.54391632273E+01  7.67287186859E+01  7.80403172954E+01
  7.93743358527E+01  8.07311575954E+01  8.21111723122E+01
  </PP_R>
  <PP_RAB>
  2.80084991714E-05  2.84872653757E-05  2.89742154200E-05  2.94694891958E-05
  2.99732289856E-05  3.04855795041E-05  3.10066879396E-05  3.15367039966E-05
  3.20757799384E-05  3.26240706310E-05  3.31817335879E-05  3.37489290147E-05
  3.43258198557E-05  3.49125718406E-05  3.55093535317E-05  3.61163363730E-05
  3.67336947389E-05  3.73616059844E-05  3.80002504963E-05  3.86498117449E-05
  3.93104763365E-05  3.99824340672E-05  4.06658779776E-05  4.13610044077E-05
  4.20680130541E-05  4.27871070266E-05  4.35184929069E-05  4.42623808082E-05
  4.50189844349E-05  4.57885211447E-05  4.65712120106E-05  4.73672818845E-05
  4.81769594619E-05  4.90004773475E-05  4.98380721220E-05  5.06899844103E-05
  5.15564589501E-05  5.24377446630E-05  5.33340947252E-05  5.42457666407E-05
  5.51730223153E-05  5.61161281316E-05  5.70753550255E-05  5.80509785646E-05
  5.90432790264E-05  6.00525414797E-05  6.10790558662E-05  6.21231170835E-05
  6.31850250701E-05  6.42650848918E-05  6.53636068288E-05  6.64809064652E-05
  6.76173047796E-05  6.87731282372E-05  6.99487088837E-05  7.11443844407E-05
  7.23604984026E-05  7.35974001355E-05  7.48554449773E-05  7.61349943399E-05
  7.74364158132E-05  7.87600832702E-05  8.01063769750E-05  8.14756836919E-05
  8.28683967960E-05  8.42849163870E-05  8.57256494035E-05  8.71910097401E-05
  8.86814183667E-05  9.01973034487E-05  9.17391004705E-05  9.33072523608E-05
  9.49022096190E-05  9.65244304456E-05  9.81743808733E-05  9.98525349008E-05
  1.01559374629E-04  1.03295390401E-04  1.05061080939E-04  1.06856953493E-04
  1.08683523982E-04  1.10541317145E-04  1.12430866688E-04  1.14352715444E-04
  1.16307415523E-04  1.18295528471E-04  1.20317625435E-04  1.22374287325E-04
  1.24466104980E-04  1.26593679338E-04  1.28757621610E-04  1.30958553456E-04
  1.33197107160E-04  1.35473925815E-04  1.37789663507E-04  1.40144985504E-04
  1.42540568443E-04  1.44977100529E-04  1.47455281730E-04  1.49975823981E-04
  1.52539451383E-04  1.55146900419E-04  1.57798920156E-04  1.60496272470E-04
  1.63239732257E-04  1.66030087661E-04  1.68868140295E-04  1.71754705479E-04
  1.74690612466E-04  1.77676704685E-04  1.80713839984E-04  1.83802890872E-04
  1.86944744773E-04  1.90140304283E-04  1.93390487422E-04  1.96696227906E-04
  2.00058475410E-04  2.03478195843E-04  2.06956371624E-04  2.10494001966E-04
  2.14092103161E-04  2.17751708875E-04  2.21473870441E-04  2.25259657164E-04
  2.29110156628E-04  2.33026475006E-04  2.37009737382E-04  2.41061088068E-04
  2.45181690941E-04  2.49372729768E-04  2.53635408556E-04  2.57970951888E-04
  2.62380605283E-04  2.66865635548E-04  2.71427331146E-04  2.76067002565E-04
  2.80785982691E-04  2.85585627196E-04  2.90467314926E-04  2.95432448294E-04
  3.00482453688E-04  3.05618781877E-04  3.10842908427E-04  3.16156334130E-04
  3.21560585430E-04  3.27057214864E-04  3.32647801506E-04  3.38333951425E-04
  3.44117298142E-04  3.49999503099E-04  3.55982256140E-04  3.62067275995E-04
  3.68256310772E-04  3.74551138461E-04  3.80953567445E-04  3.87465437016E-04
  3.94088617910E-04  4.00825012838E-04  4.07676557035E-04  4.14645218819E-04
  4.21733000150E-04  4.28941937211E-04  4.36274100991E-04  4.43731597877E-04
  4.51316570265E-04  4.59031197170E-04  4.66877694856E-04  4.74858317468E-04
  4.82975357687E-04  4.91231147379E-04  4.99628058275E-04  5.08168502644E-04
  5.16854933989E-04  5.25689847756E-04  5.34675782044E-04  5.43815318337E-04
  5.53111082248E-04  5.62565744270E-04  5.72182020544E-04  5.81962673640E-04
  5.91910513351E-04  6.02028397498E-04  6.12319232754E-04  6.22785975477E-04
  6.33431632559E-04  6.44259262292E-04  6.55271975244E-04  6.66472935154E-04
  6.77865359842E-04  6.89452522131E-04  7.01237750787E-04  7.13224431480E-04
  7.25416007750E-04  7.37815982003E-04  7.50427916509E-04  7.63255434434E-04
  7.76302220876E-04  7.89572023924E-04  8.03068655736E-04  8.16795993632E-04
  8.30757981212E-04  8.44958629483E-04  8.59402018019E-04  8.74092296124E-04
  8.89033684031E-04  9.04230474112E-04  9.19687032110E-04  9.35407798397E-04
  9.51397289242E-04  9.67660098119E-04  9.84200897017E-04  1.00102443779E-03
  1.01813555351E-03  1.03553915987E-03  1.05324025660E-03  1.07124392887E-03
  1.08955534879E-03  1.10817977688E-03  1.12712256357E-03  1.14638915077E-03
  1.16598507339E-03  1.18591596095E-03  1.20618753922E-03  1.22680563183E-03
  1.24777616196E-03  1.26910515404E-03  1.29079873547E-03  1.31286313839E-03
  1.33530470149E-03  1.35812987180E-03  1.38134520653E-03  1.40495737501E-03
  1.42897316056E-03  1.45339946245E-03  1.47824329787E-03  1.50351180399E-03
  1.52921223996E-03  1.55535198901E-03  1.58193856060E-03  1.60897959251E-03
  1.63648285314E-03  1.66445624361E-03  1.69290780016E-03  1.72184569636E-03
  1.75127824551E-03  1.78121390300E-03  1.81166126879E-03  1.84262908980E-03
  1.87412626249E-03  1.90616183539E-03  1.93874501171E-03  1.97188515194E-03
  2.00559177662E-03  2.03987456901E-03  2.07474337790E-03  2.11020822040E-03
  2.14627928489E-03  2.18296693389E-03  2.22028170705E-03  2.25823432417E-03
  2.29683568832E-03  2.33609688892E-03  2.37602920495E-03  2.41664410819E-03
  2.45795326652E-03  2.49996854726E-03  2.54270202058E-03  2.58616596299E-03
  2.63037286084E-03  2.67533541391E-03  2.72106653908E-03  2.76757937401E-03
  2.81488728094E-03  2.86300385051E-03  2.91194290569E-03  2.96171850571E-03
  3.01234495015E-03  3.06383678301E-03  3.11620879688E-03  3.16947603724E-03
  3.22365380673E-03  3.27875766958E-03  3.33480345607E-03  3.39180726705E-03
  3.44978547863E-03  3.50875474682E-03  3.56873201235E-03  3.62973450553E-03
  3.69177975119E-03  3.75488557374E-03  3.81907010226E-03  3.88435177571E-03
  3.95074934826E-03  4.01828189465E-03  4.08696881567E-03  4.15682984375E-03
  4.22788504860E-03  4.30015484301E-03  4.37365998869E-03  4.44842160226E-03
  4.52446116128E-03  4.60180051043E-03  4.68046186782E-03  4.76046783133E-03
  4.84184138514E-03  4.92460590628E-03  5.00878517140E-03  5.09440336357E-03
  5.18148507925E-03  5.27005533533E-03  5.36013957633E-03  5.45176368170E-03
  5.54495397329E-03  5.63973722285E-03  5.73614065978E-03  5.83419197892E-03
  5.93391934852E-03  6.03535141833E-03  6.13851732781E-03  6.24344671453E-03
  6.35016972267E-03  6.45871701170E-03  6.56911976514E-03  6.68140969957E-03
  6.79561907372E-03  6.91178069773E-03  7.02992794258E-03  7.15009474970E-03
  7.27231564068E-03  7.39662572721E-03  7.52306072119E-03  7.65165694493E-03
  7.78245134165E-03  7.91548148604E-03  8.05078559509E-03  8.18840253905E-03
  8.32837185261E-03  8.47073374624E-03  8.61552911776E-03  8.76279956408E-03
  8.91258739315E-03  9.06493563611E-03  9.21988805966E-03  9.37748917864E-03
  9.53778426879E-03  9.70081937981E-03  9.86664134851E-03  1.00352978123E-02
  1.02068372230E-02  1.03813088606E-02  1.05587628473E-02  1.07392501622E-02
  1.09228226559E-02  1.11095330651E-02  1.12994350282E-02  1.14925831004E-02
  1.16890327693E-02  1.18888404711E-02  1.20920636068E-02  1.22987605583E-02
  1.25089907057E-02  1.27228144441E-02  1.29402932009E-02  1.31614894535E-02
  1.33864667474E-02  1.36152897141E-02  1.38480240900E-02  1.40847367354E-02
  1.43254956530E-02  1.45703700083E-02  1.48194301490E-02  1.50727476252E-02
  1.53303952102E-02  1.55924469210E-02  1.58589780400E-02  1.61300651366E-02
  1.64057860888E-02  1.66862201059E-02  1.69714477511E-02  1.72615509648E-02
  1.75566130881E-02  1.78567188866E-02  1.81619545748E-02  1.84724078412E-02
  1.87881678729E-02  1.91093253817E-02  1.94359726299E-02  1.97682034569E-02
  2.01061133062E-02  2.04497992528E-02  2.07993600310E-02  2.11548960629E-02
  2.15165094870E-02  2.18843041879E-02  2.22583858260E-02  2.26388618676E-02
  2.30258416161E-02  2.34194362434E-02  2.38197588215E-02  2.42269243553E-02
  2.46410498158E-02  2.50622541730E-02  2.54906584309E-02  2.59263856616E-02
  2.63695610413E-02  2.68203118856E-02  2.72787676865E-02  2.77450601495E-02
  2.82193232313E-02  2.87016931787E-02  2.91923085671E-02  2.96913103409E-02
  3.01988418536E-02  3.07150489091E-02  3.12400798039E-02  3.17740853691E-02
  3.23172190141E-02  3.28696367708E-02  3.34314973381E-02  3.40029621276E-02
  3.45841953102E-02  3.51753638629E-02  3.57766376169E-02  3.63881893066E-02
  3.70101946189E-02  3.76428322440E-02  3.82862839264E-02  3.89407345172E-02
  3.96063720276E-02  4.02833876822E-02  4.09719759746E-02  4.16723347229E-02
  4.23846651265E-02  4.31091718242E-02  4.38460629528E-02  4.45955502068E-02
  4.53578488994E-02  4.61331780243E-02  4.69217603186E-02  4.77238223266E-02
  4.85395944652E-02  4.93693110901E-02  5.02132105627E-02  5.10715353190E-02
  5.19445319392E-02  5.28324512182E-02  5.37355482381E-02  5.46540824412E-02
  5.55883177045E-02  5.65385224159E-02  5.75049695506E-02  5.84879367504E-02
  5.94877064026E-02  6.05045657217E-02  6.15388068317E-02  6.25907268501E-02
  6.36606279731E-02  6.47488175627E-02  6.58556082346E-02  6.69813179484E-02
  6.81262700987E-02  6.92907936081E-02  7.04752230216E-02  7.16798986030E-02
  7.29051664322E-02  7.41513785049E-02  7.54188928338E-02  7.67080735511E-02
  7.80192910137E-02  7.93529219088E-02  8.07093493628E-02  8.20889630511E-02
  8.34921593100E-02  8.49193412506E-02  8.63709188747E-02  8.78473091924E-02
  8.93489363421E-02  9.08762317123E-02  9.24296340653E-02  9.40095896636E-02
  9.56165523979E-02  9.72509839174E-02  9.89133537626E-02  1.00604139500E-01
  1.02323826861E-01  1.04072909876E-01  1.05851891025E-01  1.07661281374E-01
  1.09501600725E-01  1.11373377768E-01  1.13277150227E-01  1.15213465019E-01
  1.17182878410E-01  1.19185956174E-01  1.21223273757E-01  1.23295416441E-01
  1.25402979513E-01  1.27546568433E-01  1.29726799015E-01  1.31944297596E-01
  1.34199701220E-01  1.36493657821E-01  1.38826826409E-01  1.41199877258E-01
  1.43613492099E-01  1.46068364318E-01  1.48565199151E-01  1.51104713891E-01
  1.53687638091E-01  1.56314713776E-01  1.58986695653E-01  1.61704351331E-01
  1.64468461540E-01  1.67279820356E-01  1.70139235427E-01  1.73047528208E-01
  1.76005534195E-01  1.79014103166E-01  1.82074099425E-01  1.85186402050E-01
  1.88351905144E-01  1.91571518096E-01  1.94846165838E-01  1.98176789113E-01
  2.01564344745E-01  2.05009805913E-01  2.08514162430E-01  2.12078421032E-01
  2.15703605660E-01  2.19390757760E-01  2.23140936579E-01  2.26955219471E-01
  2.30834702206E-01  2.34780499284E-01  2.38793744257E-01  2.42875590051E-01
  2.47027209302E-01  2.51249794691E-01  2.55544559284E-01  2.59912736883E-01
  2.64355582382E-01  2.68874372125E-01  2.73470404272E-01  2.78144999174E-01
  2.82899499752E-01  2.87735271882E-01  2.92653704787E-01  2.97656211439E-01
  3.02744228960E-01  3.07919219041E-01  3.13182668354E-01  3.18536088987E-01
  3.23981018875E-01  3.29519022241E-01  3.35151690045E-01  3.40880640444E-01
  3.46707519254E-01  3.52634000426E-01  3.58661786523E-01  3.64792609210E-01
  3.71028229755E-01  3.77370439531E-01  3.83821060531E-01  3.90381945895E-01
  3.97054980438E-01  4.03842081193E-01  4.10745197964E-01  4.17766313881E-01
  4.24907445977E-01  4.32170645759E-01  4.39557999805E-01  4.47071630359E-01
  4.54713695941E-01  4.62486391968E-01  4.70391951386E-01  4.78432645310E-01
  4.86610783675E-01  4.94928715901E-01  5.03388831570E-01  5.11993561109E-01
  5.20745376491E-01  5.29646791943E-01  5.38700364669E-01  5.47908695586E-01
  5.57274430068E-01  5.66800258710E-01  5.76488918099E-01  5.86343191598E-01
  5.96365910150E-01  6.06559953087E-01  6.16928248962E-01  6.27473776385E-01
  6.38199564881E-01  6.49108695763E-01  6.60204303012E-01  6.71489574182E-01
  6.82967751312E-01  6.94642131862E-01  7.06516069654E-01  7.18592975842E-01
  7.30876319886E-01  7.43369630553E-01  7.56076496931E-01  7.69000569455E-01
  7.82145560962E-01  7.95515247754E-01  8.09113470682E-01  8.22944136254E-01
  8.37011217751E-01  8.51318756375E-01  8.65870862403E-01  8.80671716374E-01
  8.95725570288E-01  9.11036748826E-01  9.26609650592E-01  9.42448749380E-01
  9.58558595456E-01  9.74943816868E-01  9.91609120772E-01  1.00855929479E+00
  1.02579920837E+00  1.04333381422E+00  1.06116814969E+00  1.07930733822E+00
  1.09775659087E+00  1.11652120775E+00  1.13560657957E+00  1.15501818918E+00
  1.17476161316E+00  1.19484252342E+00  1.21526668882E+00  1.23603997683E+00
  1.25716835520E+00  1.27865789371E+00  1.30051476589E+00  1.32274525079E+00
  1.34535573482E+00  1.36835271351E+00  1.39174279345E+00
  </PP_RAB>
</PP_MESH>


<PP_LOCAL>
 -9.35322478251E+00 -9.35322478251E+00 -9.35322473405E+00 -9.35322464871E+00
 -9.35322452697E+00 -9.35322436617E+00 -9.35322416476E+00 -9.35322392055E+00
 -9.35322363154E+00 -9.35322329548E+00 -9.35322291018E+00 -9.35322247324E+00
 -9.35322198227E+00 -9.35322143470E+00 -9.35322082794E+00 -9.35322015921E+00
 -9.35321942574E+00 -9.35321862450E+00 -9.35321775251E+00 -9.35321680653E+00
 -9.35321578330E+00 -9.35321467936E+00 -9.35321349119E+00 -9.35321221505E+00
 -9.35321084715E+00 -9.35320938346E+00 -9.35320781990E+00 -9.35320615213E+00
 -9.35320437576E+00 -9.35320248609E+00 -9.35320047841E+00 -9.35319834767E+00
 -9.35319608877E+00 -9.35319369631E+00 -9.35319116477E+00 -9.35318848835E+00
 -9.35318566112E+00 -9.35318267681E+00 -9.35317952907E+00 -9.35317621114E+00
 -9.35317271619E+00 -9.35316903696E+00 -9.35316516608E+00 -9.35316109577E+00
 -9.35315681810E+00 -9.35315232468E+00 -9.35314760701E+00 -9.35314265608E+00
 -9.35313746272E+00 -9.35313201727E+00 -9.35312630987E+00 -9.35312033013E+00
 -9.35311406747E+00 -9.35310751072E+00 -9.35310064851E+00 -9.35309346884E+00
 -9.35308595950E+00 -9.35307810760E+00 -9.35306990003E+00 -9.35306132294E+00
 -9.35305236224E+00 -9.35304300308E+00 -9.35303323032E+00 -9.35302302801E+00
 -9.35301237990E+00 -9.35300126887E+00 -9.35298967747E+00 -9.35297758733E+00
 -9.35296497971E+00 -9.35295183489E+00 -9.35293813277E+00 -9.35292385219E+00
 -9.35290897156E+00 -9.35289346818E+00 -9.35287731889E+00 -9.35286049934E+00
 -9.35284298466E+00 -9.35282474873E+00 -9.35280576488E+00 -9.35278600508E+00
 -9.35276544073E+00 -9.35274404175E+00 -9.35272177747E+00 -9.35269861564E+00
 -9.35267452334E+00 -9.35264946599E+00 -9.35262340829E+00 -9.35259631315E+00
 -9.35256814272E+00 -9.35253885724E+00 -9.35250841610E+00 -9.35247677668E+00
 -9.35244389543E+00 -9.35240972667E+00 -9.35237422370E+00 -9.35233733754E+00
 -9.35229901815E+00 -9.35225921299E+00 -9.35221786843E+00 -9.35217492817E+00
 -9.35213033470E+00 -9.35208402768E+00 -9.35203594548E+00 -9.35198602342E+00
 -9.35193419544E+00 -9.35188039223E+00 -9.35182454298E+00 -9.35176657343E+00
 -9.35170640770E+00 -9.35164396620E+00 -9.35157916761E+00 -9.35151192667E+00
 -9.35144215624E+00 -9.35136976495E+00 -9.35129465943E+00 -9.35121674181E+00
 -9.35113591205E+00 -9.35105206527E+00 -9.35096509431E+00 -9.35087488683E+00
 -9.35078132799E+00 -9.35068429747E+00 -9.35058367227E+00 -9.35047932347E+00
 -9.35037111931E+00 -9.35025892174E+00 -9.35014258961E+00 -9.35002197503E+00
 -9.34989692685E+00 -9.34976728668E+00 -9.34963289262E+00 -9.34949357503E+00
 -9.34934916054E+00 -9.34919946748E+00 -9.34904431016E+00 -9.34888349406E+00
 -9.34871682033E+00 -9.34854408067E+00 -9.34836506215E+00 -9.34817954172E+00
 -9.34798729140E+00 -9.34778807237E+00 -9.34758164052E+00 -9.34736774017E+00
 -9.34714610995E+00 -9.34691647614E+00 -9.34667855891E+00 -9.34643206524E+00
 -9.34617669557E+00 -9.34591213620E+00 -9.34563806647E+00 -9.34535415061E+00
 -9.34506004535E+00 -9.34475539129E+00 -9.34443982103E+00 -9.34411294990E+00
 -9.34377438466E+00 -9.34342371363E+00 -9.34306051594E+00 -9.34268435101E+00
 -9.34229476847E+00 -9.34189129684E+00 -9.34147345417E+00 -9.34104073597E+00
 -9.34059262653E+00 -9.34012858606E+00 -9.33964806280E+00 -9.33915047921E+00
 -9.33863524498E+00 -9.33810174227E+00 -9.33754933956E+00 -9.33697737594E+00
 -9.33638517587E+00 -9.33577203241E+00 -9.33513722300E+00 -9.33447999155E+00
 -9.33379956527E+00 -9.33309513556E+00 -9.33236587600E+00 -9.33161092192E+00
 -9.33082938963E+00 -9.33002035463E+00 -9.32918287207E+00 -9.32831595357E+00
 -9.32741858905E+00 -9.32648972193E+00 -9.32552827254E+00 -9.32453311157E+00
 -9.32350308506E+00 -9.32243698615E+00 -9.32133358170E+00 -9.32019158213E+00
 -9.31900966987E+00 -9.31778646717E+00 -9.31652056651E+00 -9.31521049621E+00
 -9.31385475289E+00 -9.31245176481E+00 -9.31099992654E+00 -9.30949755980E+00
 -9.30794295054E+00 -9.30633430711E+00 -9.30466979988E+00 -9.30294751662E+00
 -9.30116550482E+00 -9.29932172404E+00 -9.29741409118E+00 -9.29544042962E+00
 -9.29339851755E+00 -9.29128603375E+00 -9.28910060921E+00 -9.28683976931E+00
 -9.28450098891E+00 -9.28208163078E+00 -9.27957900437E+00 -9.27699030019E+00