<PP_INFO>
Generated using Vanderbilt code, version   7  3  6                              
Author: unknown    Generation date:   21    9   11                              
Automatically converted from original format                                    
    1        The Pseudo was generated with a Scalar-Relativistic Calculation
  2.40000000000E+00    Local Potential cutoff radius
nl pn  l   occ               Rcut            Rcut US             E pseu
4D  4  2  7.00      0.90000000000      2.00000000000     -1.24194108778
5S  5  0  1.00      0.90000000000      2.40000000000     -0.87339021595
5P  5  1  0.00      0.90000000000      2.40000000000     -0.52360804749
</PP_INFO>


<PP_HEADER>
   0                   Version Number
  Ru                   Element
   US                  Ultrasoft pseudopotential
    T                  Nonlinear Core Correction
SLA  PW   PBE  PBE     PBE  Exchange-Correlation functional
    9.00000000000      Z valence
  -60.20781671800      Total energy
  0.0000000  0.0000000 Suggested cutoff for wfc and rho
    2                  Max angular momentum component
  967                  Number of points in mesh
    3    4             Number of Wavefunctions, Number of Projectors
 Wavefunctions         nl  l   occ
                       4D  2  7.00
                       5S  0  1.00
                       5P  1  0.00
</PP_HEADER>


<PP_MESH>
  <PP_R>
  0.00000000000E+00  3.48304308781E-07  7.02462334851E-07  1.06257245772E-06
  1.42873471028E-06  1.80105080664E-06  2.17962417032E-06  2.56455996302E-06
  2.95596511384E-06  3.35394834893E-06  3.75862022177E-06  4.17009314379E-06
  4.58848141569E-06  5.01390125911E-06  5.44647084898E-06  5.88631034629E-06
  6.33354193150E-06  6.78828983850E-06  7.25068038907E-06  7.72084202799E-06
  8.19890535876E-06  8.68500317980E-06  9.17927052143E-06  9.68184468330E-06
  1.01928652726E-05  1.07124742427E-05  1.12408159329E-05  1.17780371080E-05
  1.23242869998E-05  1.28797173476E-05  1.34444824414E-05  1.40187391640E-05
  1.46026470348E-05  1.51963682541E-05  1.58000677485E-05  1.64139132159E-05
  1.70380751732E-05  1.76727270025E-05  1.83180450001E-05  1.89742084252E-05
  1.96413995495E-05  2.03198037084E-05  2.10096093517E-05  2.17110080965E-05
  2.24241947804E-05  2.31493675153E-05  2.38867277428E-05  2.46364802898E-05
  2.53988334259E-05  2.61739989207E-05  2.69621921029E-05  2.77636319201E-05
  2.85785409996E-05  2.94071457104E-05  3.02496762257E-05  3.11063665872E-05
  3.19774547700E-05  3.28631827485E-05  3.37637965641E-05  3.46795463931E-05
  3.56106866162E-05  3.65574758895E-05  3.75201772162E-05  3.84990580194E-05
  3.94943902168E-05  4.05064502960E-05  4.15355193912E-05  4.25818833617E-05
  4.36458328707E-05  4.47276634667E-05  4.58276756651E-05  4.69461750319E-05
  4.80834722687E-05  4.92398832985E-05  5.04157293542E-05  5.16113370672E-05
  5.28270385584E-05  5.40631715305E-05  5.53200793617E-05  5.65981112013E-05
  5.78976220661E-05  5.92189729399E-05  6.05625308731E-05  6.19286690848E-05
  6.33177670666E-05  6.47302106880E-05  6.61663923036E-05  6.76267108619E-05
  6.91115720163E-05  7.06213882379E-05  7.21565789298E-05  7.37175705436E-05
  7.53047966982E-05  7.69186983000E-05  7.85597236652E-05  8.02283286450E-05
  8.19249767513E-05  8.36501392863E-05  8.54042954728E-05  8.71879325877E-05
  8.90015460972E-05  9.08456397946E-05  9.27207259399E-05  9.46273254025E-05
  9.65659678055E-05  9.85371916733E-05  1.00541544581E-04  1.02579583305E-04
  1.04651873982E-04  1.06758992260E-04  1.08901523465E-04  1.11080062757E-04
  1.13295215299E-04  1.15547596428E-04  1.17837831817E-04  1.20166557660E-04
  1.22534420838E-04  1.24942079107E-04  1.27390201276E-04  1.29879467396E-04
  1.32410568944E-04  1.34984209021E-04  1.37601102543E-04  1.40261976443E-04
  1.42967569869E-04  1.45718634391E-04  1.48515934213E-04  1.51360246380E-04
  1.54252360997E-04  1.57193081447E-04  1.60183224617E-04  1.63223621121E-04
  1.66315115533E-04  1.69458566622E-04  1.72654847588E-04  1.75904846308E-04
  1.79209465581E-04  1.82569623376E-04  1.85986253094E-04  1.89460303820E-04
  1.92992740590E-04  1.96584544659E-04  2.00236713774E-04  2.03950262450E-04
  2.07726222252E-04  2.11565642082E-04  2.15469588470E-04  2.19439145870E-04
  2.23475416964E-04  2.27579522964E-04  2.31752603925E-04  2.35995819063E-04
  2.40310347077E-04  2.44697386474E-04  2.49158155904E-04  2.53693894500E-04
  2.58305862216E-04  2.62995340186E-04  2.67763631072E-04  2.72612059430E-04
  2.77541972077E-04  2.82554738465E-04  2.87651751060E-04  2.92834425733E-04
  2.98104202150E-04  3.03462544169E-04  3.08910940255E-04  3.14450903886E-04
  3.20083973976E-04  3.25811715302E-04  3.31635718942E-04  3.37557602711E-04
  3.43579011616E-04  3.49701618307E-04  3.55927123550E-04  3.62257256691E-04
  3.68693776140E-04  3.75238469862E-04  3.81893155869E-04  3.88659682728E-04
  3.95539930072E-04  4.02535809127E-04  4.09649263236E-04  4.16882268405E-04
  4.24236833849E-04  4.31715002550E-04  4.39318851824E-04  4.47050493901E-04
  4.54912076510E-04  4.62905783473E-04  4.71033835317E-04  4.79298489885E-04
  4.87702042968E-04  4.96246828941E-04  5.04935221411E-04  5.13769633874E-04
  5.22752520392E-04  5.31886376269E-04  5.41173738745E-04  5.50617187704E-04
  5.60219346385E-04  5.69982882118E-04  5.79910507058E-04  5.90004978943E-04
  6.00269101858E-04  6.10705727013E-04  6.21317753539E-04  6.32108129288E-04
  6.43079851658E-04  6.54235968418E-04  6.65579578563E-04  6.77113833167E-04
  6.88841936265E-04  7.00767145739E-04  7.12892774223E-04  7.25222190025E-04
  7.37758818063E-04  7.50506140814E-04  7.63467699282E-04  7.76647093984E-04
  7.90047985948E-04  8.03674097729E-04  8.17529214447E-04  8.31617184835E-04
  8.45941922307E-04  8.60507406049E-04  8.75317682124E-04  8.90376864591E-04
  9.05689136655E-04  9.21258751821E-04  9.37090035085E-04  9.53187384125E-04
  9.69555270531E-04  9.86198241044E-04  1.00312091882E-03  1.02032800471E-03
  1.03782427856E-03  1.05561460058E-03  1.07370391263E-03  1.09209723963E-03
  1.11079969096E-03  1.12981646187E-03  1.14915283491E-03  1.16881418143E-03
  1.18880596303E-03  1.20913373312E-03  1.22980313843E-03  1.25081992059E-03
  1.27218991774E-03  1.29391906612E-03  1.31601340175E-03  1.33847906208E-03
  1.36132228772E-03  1.38454942416E-03  1.40816692353E-03  1.43218134639E-03
  1.45659936358E-03  1.48142775803E-03  1.50667342669E-03  1.53234338239E-03
  1.55844475585E-03  1.58498479761E-03  1.61197088009E-03  1.63941049958E-03
  1.66731127838E-03  1.69568096689E-03  1.72452744576E-03  1.75385872808E-03
  1.78368296163E-03  1.81400843109E-03  1.84484356042E-03  1.87619691511E-03
  1.90807720465E-03  1.94049328486E-03  1.97345416043E-03  2.00696898736E-03
  2.04104707554E-03  2.07569789134E-03  2.11093106019E-03  2.14675636932E-03
  2.18318377043E-03  2.22022338248E-03  2.25788549448E-03  2.29618056839E-03
  2.33511924195E-03  2.37471233173E-03  2.41497083606E-03  2.45590593812E-03
  2.49752900902E-03  2.53985161100E-03  2.58288550062E-03  2.62664263200E-03
  2.67113516019E-03  2.71637544450E-03  2.76237605199E-03  2.80914976088E-03
  2.85670956417E-03  2.90506867323E-03  2.95424052146E-03  3.00423876801E-03
  3.05507730161E-03  3.10677024441E-03  3.15933195588E-03  3.21277703684E-03
  3.26712033349E-03  3.32237694153E-03  3.37856221039E-03  3.43569174744E-03
  3.49378142236E-03  3.55284737155E-03  3.61290600259E-03  3.67397399884E-03
  3.73606832400E-03  3.79920622691E-03  3.86340524627E-03  3.92868321557E-03
  3.99505826798E-03  4.06254884145E-03  4.13117368380E-03  4.20095185792E-03
  4.27190274709E-03  4.34404606035E-03  4.41740183796E-03  4.49199045700E-03
  4.56783263703E-03  4.64494944578E-03  4.72336230510E-03  4.80309299685E-03
  4.88416366893E-03  4.96659684152E-03  5.05041541325E-03  5.13564266758E-03
  5.22230227930E-03  5.31041832110E-03  5.40001527020E-03  5.49111801523E-03
  5.58375186309E-03  5.67794254601E-03  5.77371622866E-03  5.87109951546E-03
  5.97011945796E-03  6.07080356232E-03  6.17317979701E-03  6.27727660052E-03
  6.38312288930E-03  6.49074806579E-03  6.60018202654E-03  6.71145517060E-03
  6.82459840788E-03  6.93964316778E-03  7.05662140793E-03  7.17556562303E-03
  7.29650885391E-03  7.41948469669E-03  7.54452731210E-03  7.67167143503E-03
  7.80095238409E-03  7.93240607149E-03  8.06606901300E-03  8.20197833805E-03
  8.34017180013E-03  8.48068778719E-03  8.62356533236E-03  8.76884412475E-03
  8.91656452052E-03  9.06676755407E-03  9.21949494943E-03  9.37478913186E-03
  9.53269323962E-03  9.69325113598E-03  9.85650742140E-03  1.00225074459E-02
  1.01912973216E-02  1.03629239358E-02  1.05374349635E-02  1.07148788813E-02
  1.08953049801E-02  1.10787633796E-02  1.12653050415E-02  1.14549817842E-02
  1.16478462970E-02  1.18439521544E-02  1.20433538317E-02  1.22461067195E-02
  1.24522671393E-02  1.26618923592E-02  1.28750406098E-02  1.30917711003E-02
  1.33121440351E-02  1.35362206302E-02  1.37640631306E-02  1.39957348274E-02
  1.42313000752E-02  1.44708243104E-02  1.47143740690E-02  1.49620170053E-02
  1.52138219107E-02  1.54698587325E-02  1.57301985937E-02  1.59949138126E-02
  1.62640779229E-02  1.65377656942E-02  1.68160531526E-02  1.70990176020E-02
  1.73867376454E-02  1.76792932070E-02  1.79767655539E-02  1.82792373194E-02
  1.85867925253E-02  1.88995166056E-02  1.92174964301E-02  1.95408203286E-02
  1.98695781154E-02  2.02038611141E-02  2.05437621834E-02  2.08893757424E-02
  2.12407977970E-02  2.15981259667E-02  2.19614595117E-02  2.23308993604E-02
  2.27065481371E-02  2.30885101914E-02  2.34768916261E-02  2.38718003275E-02
  2.42733459950E-02  2.46816401717E-02  2.50967962752E-02  2.55189296294E-02
  2.59481574961E-02  2.63845991082E-02  2.68283757023E-02  2.72796105524E-02
  2.77384290044E-02  2.82049585110E-02  2.86793286666E-02  2.91616712437E-02
  2.96521202295E-02  3.01508118631E-02  3.06578846730E-02  3.11734795160E-02
  3.16977396164E-02  3.22308106052E-02  3.27728405611E-02  3.33239800516E-02
  3.38843821744E-02  3.44542026005E-02  3.50335996169E-02  3.56227341710E-02
  3.62217699151E-02  3.68308732517E-02  3.74502133803E-02  3.80799623437E-02
  3.87202950763E-02  3.93713894523E-02  4.00334263355E-02  4.07065896293E-02
  4.13910663278E-02  4.20870465679E-02  4.27947236818E-02  4.35142942511E-02
  4.42459581611E-02  4.49899186565E-02  4.57463823978E-02  4.65155595187E-02
  4.72976636844E-02  4.80929121511E-02  4.89015258262E-02  4.97237293300E-02
  5.05597510574E-02  5.14098232423E-02  5.22741820211E-02  5.31530674991E-02
  5.40467238168E-02  5.49553992179E-02  5.58793461180E-02  5.68188211749E-02
  5.77740853601E-02  5.87454040307E-02  5.97330470038E-02  6.07372886310E-02
  6.17584078749E-02  6.27966883860E-02  6.38524185825E-02  6.49258917295E-02
  6.60174060208E-02  6.71272646620E-02  6.82557759541E-02  6.94032533799E-02
  7.05700156904E-02  7.17563869937E-02  7.29626968452E-02  7.41892803385E-02
  7.54364781993E-02  7.67046368794E-02  7.79941086533E-02  7.93052517158E-02
  8.06384302818E-02  8.19940146873E-02  8.33723814921E-02  8.47739135849E-02
  8.61990002890E-02  8.76480374712E-02  8.91214276509E-02  9.06195801128E-02
  9.21429110200E-02  9.36918435296E-02  9.52668079108E-02  9.68682416637E-02
  9.84965896414E-02  1.00152304173E-01  1.01835845190E-01  1.03547680354E-01
  1.05288285185E-01  1.07058143196E-01  1.08857746025E-01  1.10687593575E-01
  1.12548194146E-01  1.14440064586E-01  1.16363730425E-01  1.18319726028E-01
  1.20308594739E-01  1.22330889035E-01  1.24387170676E-01  1.26478010867E-01
  1.28603990408E-01  1.30765699865E-01  1.32963739724E-01  1.35198720567E-01
  1.37471263237E-01  1.39781999010E-01  1.42131569772E-01  1.44520628196E-01
  1.46949837926E-01  1.49419873756E-01  1.51931421825E-01  1.54485179801E-01
  1.57081857077E-01  1.59722174969E-01  1.62406866916E-01  1.65136678682E-01
  1.67912368567E-01  1.70734707614E-01  1.73604479823E-01  1.76522482371E-01
  1.79489525835E-01  1.82506434411E-01  1.85574046150E-01  1.88693213185E-01
  1.91864801972E-01  1.95089693528E-01  1.98368783676E-01  2.01702983297E-01
  2.05093218579E-01  2.08540431275E-01  2.12045578966E-01  2.15609635327E-01
  2.19233590397E-01  2.22918450853E-01  2.26665240292E-01  2.30474999512E-01
  2.34348786804E-01  2.38287678245E-01  2.42292767996E-01  2.46365168610E-01
  2.50506011334E-01  2.54716446428E-01  2.58997643486E-01  2.63350791756E-01
  2.67777100474E-01  2.72277799199E-01  2.76854138153E-01  2.81507388572E-01
  2.86238843055E-01  2.91049815925E-01  2.95941643595E-01  3.00915684936E-01
  3.05973321660E-01  3.11115958697E-01  3.16345024592E-01  3.21661971896E-01
  3.27068277572E-01  3.32565443408E-01  3.38154996430E-01  3.43838489326E-01
  3.49617500881E-01  3.55493636414E-01  3.61468528222E-01  3.67543836036E-01
  3.73721247480E-01  3.80002478542E-01  3.86389274048E-01  3.92883408150E-01
  3.99486684815E-01  4.06200938329E-01  4.13028033806E-01  4.19969867706E-01
  4.27028368359E-01  4.34205496506E-01  4.41503245840E-01  4.48923643561E-01
  4.56468750937E-01  4.64140663880E-01  4.71941513528E-01  4.79873466831E-01
  4.87938727163E-01  4.96139534924E-01  5.04478168170E-01  5.12956943241E-01
  5.21578215407E-01  5.30344379522E-01  5.39257870687E-01  5.48321164930E-01
  5.57536779890E-01  5.66907275519E-01  5.76435254794E-01  5.86123364437E-01
  5.95974295651E-01  6.05990784870E-01  6.16175614516E-01  6.26531613774E-01
  6.37061659376E-01  6.47768676405E-01  6.58655639098E-01  6.69725571684E-01
  6.80981549214E-01  6.92426698422E-01  7.04064198588E-01  7.15897282427E-01
  7.27929236982E-01  7.40163404541E-01  7.52603183562E-01  7.65252029619E-01
  7.78113456362E-01  7.91191036492E-01  8.04488402754E-01  8.18009248947E-01
  8.31757330948E-01  8.45736467757E-01  8.59950542559E-01  8.74403503797E-01
  8.89099366277E-01  9.04042212277E-01  9.19236192684E-01  9.34685528146E-01
  9.50394510243E-01  9.66367502684E-01  9.82608942513E-01  9.99123341346E-01
  1.01591528662E+00  1.03298944288E+00  1.05035055304E+00  1.06800343976E+00
  1.08595300673E+00  1.10420424005E+00  1.12276220963E+00  1.14163207057E+00
  1.16081906463E+00  1.18032852166E+00  1.20016586106E+00  1.22033659334E+00
  1.24084632162E+00  1.26170074316E+00  1.28290565100E+00  1.30446693553E+00
  1.32639058613E+00  1.34868269285E+00  1.37134944808E+00  1.39439714828E+00
  1.41783219575E+00  1.44166110037E+00  1.46589048143E+00  1.49052706947E+00
  1.51557770816E+00  1.54104935615E+00  1.56694908908E+00  1.59328410147E+00
  1.62006170878E+00  1.64728934941E+00  1.67497458676E+00  1.70312511136E+00
  1.73174874298E+00  1.76085343280E+00  1.79044726566E+00  1.82053846225E+00
  1.85113538143E+00  1.88224652255E+00  1.91388052778E+00  1.94604618455E+00
  1.97875242798E+00  2.01200834334E+00  2.04582316860E+00  2.08020629699E+00
  2.11516727959E+00  2.15071582802E+00  2.18686181710E+00  2.22361528761E+00
  2.26098644909E+00  2.29898568266E+00  2.33762354390E+00  2.37691076580E+00
  2.41685826173E+00  2.45747712848E+00  2.49877864932E+00  2.54077429717E+00
  2.58347573775E+00  2.62689483285E+00  2.67104364360E+00  2.71593443386E+00
  2.76157967356E+00  2.80799204225E+00  2.85518443254E+00  2.90316995373E+00
  2.95196193544E+00  3.00157393132E+00  3.05201972279E+00  3.10331332291E+00
  3.15546898021E+00  3.20850118272E+00  3.26242466194E+00  3.31725439698E+00
  3.37300561865E+00  3.42969381378E+00  3.48733472944E+00  3.54594437737E+00
  3.60553903842E+00  3.66613526702E+00  3.72774989586E+00  3.79040004051E+00
  3.85410310419E+00  3.91887678261E+00  3.98473906887E+00  4.05170825847E+00
  4.11980295439E+00  4.18904207227E+00  4.25944484565E+00  4.33103083129E+00
  4.40381991466E+00  4.47783231541E+00  4.55308859302E+00  4.62960965250E+00
  4.70741675018E+00  4.78653149965E+00  4.86697587774E+00  4.94877223063E+00
  5.03194328005E+00  5.11651212960E+00  5.20250227118E+00  5.28993759149E+00
  5.37884237868E+00  5.46924132910E+00  5.56115955414E+00  5.65462258724E+00
  5.74965639096E+00  5.84628736418E+00  5.94454234946E+00  6.04444864048E+00
  6.14603398964E+00  6.24932661574E+00  6.35435521184E+00  6.46114895323E+00
  6.56973750551E+00  6.68015103289E+00  6.79242020648E+00  6.90657621290E+00
  7.02265076287E+00  7.14067610008E+00  7.26068501011E+00  7.38271082952E+00
  7.50678745517E+00  7.63294935359E+00  7.76123157055E+00  7.89166974084E+00
  8.02430009810E+00  8.15915948498E+00  8.29628536326E+00  8.43571582436E+00
  8.57748959985E+00  8.72164607225E+00  8.86822528596E+00  9.01726795836E+00
  9.16881549115E+00  9.32290998185E+00  9.47959423547E+00  9.63891177643E+00
  9.80090686061E+00  9.96562448770E+00  1.01331104136E+01  1.03034111634E+01
  1.04765740438E+01  1.06526471568E+01  1.08316794127E+01  1.10137205439E+01
  1.11988211184E+01  1.13870325544E+01  1.15784071339E+01  1.17729980179E+01
  1.19708592605E+01  1.21720458245E+01  1.23766135965E+01  1.25846194019E+01
  1.27961210217E+01  1.30111772075E+01  1.32298476987E+01  1.34521932384E+01
  1.36782755907E+01  1.39081575577E+01  1.41419029970E+01  1.43795768393E+01
  1.46212451068E+01  1.48669749310E+01  1.51168345719E+01  1.53708934364E+01
  1.56292220981E+01  1.58918923167E+01  1.61589770577E+01  1.64305505132E+01
  1.67066881218E+01  1.69874665904E+01  1.72729639146E+01  1.75632594012E+01
  1.78584336897E+01  1.81585687747E+01  1.84637480292E+01  1.87740562271E+01
  1.90895795670E+01  1.94104056965E+01  1.97366237358E+01  2.00683243033E+01
  2.04055995402E+01  2.07485431361E+01  2.10972503554E+01  2.14518180634E+01
  2.18123447535E+01  2.21789305742E+01  2.25516773573E+01  2.29306886461E+01
  2.33160697238E+01  2.37079276431E+01  2.41063712562E+01  2.45115112442E+01
  2.49234601488E+01  2.53423324027E+01  2.57682443621E+01  2.62013143387E+01
  2.66416626323E+01  2.70894115648E+01  2.75446855139E+01  2.80076109473E+01
  2.84783164585E+01  2.89569328021E+01  2.94435929300E+01  2.99384320289E+01
  3.04415875571E+01  3.09531992834E+01  3.14734093253E+01  3.20023621892E+01
  3.25402048095E+01  3.30870865907E+01  3.36431594478E+01  3.42085778490E+01
  3.47834988587E+01  3.53680821808E+01  3.59624902034E+01  3.65668880435E+01
  3.71814435935E+01  3.78063275671E+01  3.84417135472E+01  3.90877780340E+01
  3.97447004940E+01  4.04126634099E+01  4.10918523312E+01  4.17824559260E+01
  4.24846660329E+01  4.31986777149E+01  4.39246893132E+01  4.46629025022E+01
  4.54135223460E+01  4.61767573548E+01  4.69528195434E+01  4.77419244895E+01
  4.85442913941E+01  4.93601431419E+01  5.01897063638E+01  5.10332114992E+01
  5.18908928606E+01  5.27629886984E+01  5.36497412669E+01  5.45513968921E+01
  5.54682060396E+01  5.64004233845E+01  5.73483078822E+01  5.83121228398E+01
  5.92921359901E+01  6.02886195652E+01  6.13018503724E+01  6.23321098714E+01
  6.33796842518E+01  6.44448645135E+01  6.55279465465E+01  6.66292312140E+01
  6.77490244354E+01  6.88876372718E+01  7.00453860116E+01  7.12225922592E+01
  7.24195830240E+01  7.36366908111E+01  7.48742537137E+01  7.61326155073E+01
  7.74121257450E+01  7.87131398545E+01  8.00360192369E+01  8.13811313673E+01
  8.27488498966E+01  8.41395547553E+01  8.55536322594E+01  8.69914752172E+01
  8.84534830388E+01  8.99400618469E+01  9.14516245896E+01  9.29885911551E+01
  9.45513884885E+01  9.61404507102E+01  9.77562192366E+01  9.93991429027E+01
  1.01069678087E+02  1.02768288837E+02  1.04495447001E+02  1.06251632355E+02
  1.08037332741E+02  1.09853044197E+02  1.11699271100E+02  1.13576526303E+02
  1.15485331276E+02  1.17426216257E+02  1.19399720391E+02  1.21406391889E+02
  1.23446788170E+02  1.25521476025E+02  1.27631031770E+02  1.29776041406E+02
  1.31957100783E+02  1.34174815763E+02  1.36429802395E+02  1.38722687077E+02
  1.41054106736E+02  1.43424709005E+02  1.45835152398E+02  1.48286106500E+02
  1.50778252145E+02  1.53312281614E+02  1.55888898820E+02  1.58508819505E+02
  1.61172771443E+02  1.63881494638E+02  1.66635741529E+02  1.69436277204E+02
  1.72283879606E+02  1.75179339755E+02  1.78123461964E+02  1.81117064064E+02
  1.84160977629E+02  1.87256048212E+02  1.90403135573E+02  1.93603113925E+02
  1.96856872169E+02  2.00165314150E+02  2.03529358900E+02
  </PP_R>
  <PP_RAB>
  3.45409835437E-07  3.51214907250E-07  3.57117541018E-07  3.63119376399E-07
  3.69222080609E-07  3.75427348881E-07  3.81736904943E-07  3.88152501488E-07
  3.94675920668E-07  4.01308974586E-07  4.08053505800E-07  4.14911387834E-07
  4.21884525699E-07  4.28974856423E-07  4.36184349587E-07  4.43515007875E-07
  4.50968867629E-07  4.58547999412E-07  4.66254508588E-07  4.74090535904E-07
  4.82058258083E-07  4.90159888434E-07  4.98397677461E-07  5.06773913492E-07
  5.15290923314E-07  5.23951072816E-07  5.32756767652E-07  5.41710453904E-07
  5.50814618767E-07  5.60071791231E-07  5.69484542795E-07  5.79055488171E-07
  5.88787286017E-07  5.98682639673E-07  6.08744297912E-07  6.18975055703E-07
  6.29377754990E-07  6.39955285478E-07  6.50710585438E-07  6.61646642523E-07
  6.72766494596E-07  6.84073230577E-07  6.95569991299E-07  7.07259970379E-07
  7.19146415111E-07  7.31232627359E-07  7.43521964484E-07  7.56017840268E-07
  7.68723725870E-07  7.81643150782E-07  7.94779703819E-07  8.08137034105E-07
  8.21718852098E-07  8.35528930611E-07  8.49571105866E-07  8.63849278558E-07
  8.78367414937E-07  8.93129547913E-07  9.08139778173E-07  9.23402275322E-07
  9.38921279040E-07  9.54701100263E-07  9.70746122374E-07  9.87060802427E-07
  1.00364967238E-06  1.02051734037E-06  1.03766849196E-06  1.05510789146E-06
  1.07284038328E-06  1.09087089322E-06  1.10920442986E-06  1.12784608597E-06
  1.14680103992E-06  1.16607455708E-06  1.18567199134E-06  1.20559878656E-06
  1.22586047808E-06  1.24646269428E-06  1.26741115813E-06  1.28871168879E-06
  1.31037020321E-06  1.33239271777E-06  1.35478534999E-06  1.37755432018E-06
  1.40070595321E-06  1.42424668024E-06  1.44818304050E-06  1.47252168313E-06
  1.49726936904E-06  1.52243297274E-06  1.54801948427E-06  1.57403601116E-06
  1.60048978041E-06  1.62738814044E-06  1.65473856319E-06  1.68254864619E-06
  1.71082611463E-06  1.73957882354E-06  1.76881475998E-06  1.79854204523E-06
  1.82876893706E-06  1.85950383201E-06  1.89075526777E-06  1.92253192548E-06
  1.95484263220E-06  1.98769636333E-06  2.02110224512E-06  2.05506955719E-06
  2.08960773514E-06  2.12472637311E-06  2.16043522652E-06  2.19674421471E-06
  2.23366342376E-06  2.27120310923E-06  2.30937369906E-06  2.34818579643E-06
  2.38765018273E-06  2.42777782055E-06  2.46857985671E-06  2.51006762536E-06
  2.55225265117E-06  2.59514665245E-06  2.63876154450E-06  2.68310944282E-06
  2.72820266658E-06  2.77405374196E-06  2.82067540565E-06  2.86808060843E-06
  2.91628251871E-06  2.96529452622E-06  3.01513024572E-06  3.06580352079E-06
  3.11732842766E-06  3.16971927914E-06  3.22299062857E-06  3.27715727391E-06
  3.33223426178E-06  3.38823689171E-06  3.44518072034E-06  3.50308156577E-06
  3.56195551193E-06  3.62181891308E-06  3.68268839834E-06  3.74458087627E-06
  3.80751353963E-06  3.87150387013E-06  3.93656964326E-06  4.00272893328E-06
  4.07000011818E-06  4.13840188484E-06  4.20795323418E-06  4.27867348649E-06
  4.35058228672E-06  4.42369961000E-06  4.49804576717E-06  4.57364141043E-06
  4.65050753904E-06  4.72866550521E-06  4.80813701997E-06  4.88894415927E-06
  4.97110937005E-06  5.05465547651E-06  5.13960568644E-06  5.22598359766E-06
  5.31381320460E-06  5.40311890492E-06  5.49392550636E-06  5.58625823353E-06
  5.68014273503E-06  5.77560509048E-06  5.87267181781E-06  5.97136988063E-06
  6.07172669570E-06  6.17377014056E-06  6.27752856127E-06  6.38303078028E-06
  6.49030610444E-06  6.59938433314E-06  6.71029576659E-06  6.82307121423E-06
  6.93774200331E-06  7.05433998755E-06  7.17289755604E-06  7.29344764219E-06
  7.41602373292E-06  7.54065987793E-06  7.66739069917E-06  7.79625140046E-06
  7.92727777727E-06  8.06050622666E-06  8.19597375738E-06  8.33371800019E-06
  8.47377721824E-06  8.61619031779E-06  8.76099685895E-06  8.90823706667E-06
  9.05795184197E-06  9.21018277325E-06  9.36497214786E-06  9.52236296383E-06
  9.68239894186E-06  9.84512453741E-06  1.00105849531E-05  1.01788261512E-05
  1.03498948664E-05  1.05238386190E-05  1.07007057277E-05  1.08805453236E-05
  1.10634073631E-05  1.12493426424E-05  1.14384028115E-05  1.16306403882E-05
  1.18261087732E-05  1.20248622644E-05  1.22269560725E-05  1.24324463359E-05
  1.26413901365E-05  1.28538455157E-05  1.30698714901E-05  1.32895280685E-05
  1.35128762679E-05  1.37399781309E-05  1.39708967429E-05  1.42056962493E-05
  1.44444418739E-05  1.46871999363E-05  1.49340378708E-05  1.51850242453E-05
  1.54402287797E-05  1.56997223658E-05  1.59635770868E-05  1.62318662375E-05
  1.65046643443E-05  1.67820471862E-05  1.70640918157E-05  1.73508765805E-05
  1.76424811448E-05  1.79389865118E-05  1.82404750459E-05  1.85470304959E-05
  1.88587380181E-05  1.91756841999E-05  1.94979570840E-05  1.98256461926E-05
  2.01588425526E-05  2.04976387208E-05  2.08421288092E-05  2.11924085120E-05
  2.15485751311E-05  2.19107276041E-05  2.22789665312E-05  2.26533942034E-05
  2.30341146308E-05  2.34212335714E-05  2.38148585609E-05  2.42150989419E-05
  2.46220658951E-05  2.50358724693E-05  2.54566336135E-05  2.58844662086E-05
  2.63194890995E-05  2.67618231290E-05  2.72115911702E-05  2.76689181617E-05
  2.81339311418E-05  2.86067592836E-05  2.90875339314E-05  2.95763886368E-05
  3.00734591959E-05  3.05788836870E-05  3.10928025091E-05  3.16153584207E-05
  3.21466965796E-05  3.26869645831E-05  3.32363125092E-05  3.37948929581E-05
  3.43628610945E-05  3.49403746910E-05  3.55275941719E-05  3.61246826574E-05
  3.67318060092E-05  3.73491328767E-05  3.79768347435E-05  3.86150859752E-05
  3.92640638680E-05  3.99239486977E-05  4.05949237698E-05  4.12771754707E-05
  4.19708933191E-05  4.26762700188E-05  4.33935015124E-05  4.41227870354E-05
  4.48643291719E-05  4.56183339105E-05  4.63850107019E-05  4.71645725167E-05
  4.79572359050E-05  4.87632210560E-05  4.95827518598E-05  5.04160559690E-05
  5.12633648624E-05  5.21249139089E-05  5.30009424335E-05  5.38916937828E-05
  5.47974153936E-05  5.57183588610E-05  5.66547800086E-05  5.76069389594E-05
  5.85751002081E-05  5.95595326946E-05  6.05605098787E-05  6.15783098161E-05
  6.26132152354E-05  6.36655136172E-05  6.47354972733E-05  6.58234634282E-05
  6.69297143017E-05  6.80545571930E-05  6.91983045654E-05  7.03612741341E-05
  7.15437889536E-05  7.27461775079E-05  7.39687738014E-05  7.52119174522E-05
  7.64759537859E-05  7.77612339318E-05  7.90681149205E-05  8.03969597829E-05
  8.17481376510E-05  8.31220238608E-05  8.45190000562E-05  8.59394542951E-05
  8.73837811572E-05  8.88523818537E-05  9.03456643388E-05  9.18640434226E-05
  9.34079408870E-05  9.49777856022E-05  9.65740136464E-05  9.81970684265E-05
  9.98474008014E-05  1.01525469207E-04  1.03231739786E-04  1.04966686511E-04
  1.06730791324E-04  1.08524544265E-04  1.10348443611E-04  1.12202996012E-04
  1.14088716633E-04  1.16006129298E-04  1.17955766634E-04  1.19938170219E-04
  1.21953890734E-04  1.24003488114E-04  1.26087531704E-04  1.28206600419E-04
  1.30361282904E-04  1.32552177694E-04  1.34779893385E-04  1.37045048803E-04
  1.39348273171E-04  1.41690206289E-04  1.44071498708E-04  1.46492811915E-04
  1.48954818511E-04  1.51458202403E-04  1.54003658993E-04  1.56591895366E-04
  1.59223630496E-04  1.61899595435E-04  1.64620533525E-04  1.67387200600E-04
  1.70200365196E-04  1.73060808765E-04  1.75969325894E-04  1.78926724523E-04
  1.81933826170E-04  1.84991466161E-04  1.88100493860E-04  1.91261772906E-04
  1.94476181452E-04  1.97744612409E-04  2.01067973698E-04  2.04447188494E-04
  2.07883195490E-04  2.11376949155E-04  2.14929419999E-04  2.18541594841E-04
  2.22214477087E-04  2.25949087006E-04  2.29746462012E-04  2.33607656958E-04
  2.37533744422E-04  2.41525815008E-04  2.45584977652E-04  2.49712359924E-04
  2.53909108347E-04  2.58176388710E-04  2.62515386396E-04  2.66927306712E-04
  2.71413375217E-04  2.75974838072E-04  2.80612962379E-04  2.85329036536E-04
  2.90124370593E-04  2.95000296618E-04  2.99958169067E-04  3.04999365158E-04
  3.10125285257E-04  3.15337353262E-04  3.20637017004E-04  3.26025748646E-04
  3.31505045092E-04  3.37076428405E-04  3.42741446226E-04  3.48501672208E-04
  3.54358706451E-04  3.60314175947E-04  3.66369735031E-04  3.72527065842E-04
  3.78787878788E-04  3.85153913025E-04  3.91626936937E-04  3.98208748627E-04
  4.04901176419E-04  4.11706079364E-04  4.18625347756E-04  4.25660903658E-04
  4.32814701438E-04  4.40088728306E-04  4.47485004873E-04  4.55005585708E-04
  4.62652559909E-04  4.70428051685E-04  4.78334220945E-04  4.86373263897E-04
  4.94547413661E-04  5.02858940887E-04  5.11310154385E-04  5.19903401769E-04
  5.28641070108E-04  5.37525586588E-04  5.46559419188E-04  5.55745077362E-04
  5.65085112743E-04  5.74582119844E-04  5.84238736784E-04  5.94057646019E-04
  6.04041575086E-04  6.14193297364E-04  6.24515632841E-04  6.35011448898E-04
  6.45683661107E-04  6.56535234041E-04  6.67569182094E-04  6.78788570324E-04
  6.90196515299E-04  7.01796185967E-04  7.13590804532E-04  7.25583647354E-04
  7.37778045854E-04  7.50177387444E-04  7.62785116466E-04  7.75604735147E-04
  7.88639804575E-04  8.01893945687E-04  8.15370840273E-04  8.29074232002E-04
  8.43007927459E-04  8.57175797206E-04  8.71581776853E-04  8.86229868154E-04
  9.01124140116E-04  9.16268730134E-04  9.31667845135E-04  9.47325762751E-04
  9.63246832503E-04  9.79435477014E-04  9.95896193232E-04  1.01263355369E-03
  1.02965220775E-03  1.04695688294E-03  1.06455238621E-03  1.08244360533E-03
  1.10063551018E-03  1.11913315420E-03  1.13794167574E-03  1.15706629950E-03
  1.17651233801E-03  1.19628519306E-03  1.21639035726E-03  1.23683341548E-03
  1.25762004649E-03  1.27875602449E-03  1.30024722072E-03  1.32209960510E-03
  1.34431924787E-03  1.36691232129E-03  1.38988510137E-03  1.41324396958E-03
  1.43699541465E-03  1.46114603435E-03  1.48570253735E-03  1.51067174505E-03
  1.53606059350E-03  1.56187613533E-03  1.58812554168E-03  1.61481610423E-03
  1.64195523719E-03  1.66955047939E-03  1.69760949634E-03  1.72614008240E-03
  1.75515016292E-03  1.78464779644E-03  1.81464117693E-03  1.84513863608E-03