<PP_INFO>
Generated using Vanderbilt code, version   7  3  6                              
Author: unknown    Generation date:    7    4   15                              
Automatically converted from original format                                    
    1        The Pseudo was generated with a Scalar-Relativistic Calculation
  2.20000000000E+00    Local Potential cutoff radius
nl pn  l   occ               Rcut            Rcut US             E pseu
3S  3  0  2.00      1.00000000000      1.80000000000     -6.58790668808
3P  3  1  6.00      1.00000000000      2.00000000000     -4.63938509564
4S  4  0  2.00      1.00000000000      1.80000000000     -0.94642165373
3D  3  2  3.00      1.00000000000      2.20000000000     -1.41781176234
4P  4  1  0.00      1.00000000000      2.00000000000     -0.60446288364
</PP_INFO>


<PP_HEADER>
   0                   Version Number
  V                    Element
   US                  Ultrasoft pseudopotential
    T                  Nonlinear Core Correction
SLA  PW   PBE  PBE     PBE  Exchange-Correlation functional
   14.00000000000      Z valence
 -172.19767266067      Total energy
    0.00000    0.00000 Suggested cutoff for wfc and rho
    2                  Max angular momentum component
  853                  Number of points in mesh
    5    6             Number of Wavefunctions, Number of Projectors
 Wavefunctions         nl  l   occ
                       3S  0  2.00
                       3P  1  6.00
                       4S  0  2.00
                       3D  2  3.00
                       4P  1  0.00
</PP_HEADER>


<PP_MESH>
  <PP_R>
  0.00000000000E+00  1.84220909043E-06  3.71590817425E-06  5.62163552895E-06
  7.55993863312E-06  9.53137432374E-06  1.15365089561E-05  1.35759185666E-05
  1.56501890382E-05  1.77599162687E-05  1.99057063417E-05  2.20881757014E-05
  2.43079513289E-05  2.65656709228E-05  2.88619830822E-05  3.11975474933E-05
  3.35730351184E-05  3.59891283892E-05  3.84465214025E-05  4.09459201198E-05
  4.34880425700E-05  4.60736190557E-05  4.87033923629E-05  5.13781179747E-05
  5.40985642879E-05  5.68655128342E-05  5.96797585042E-05  6.25421097764E-05
  6.54533889488E-05  6.84144323757E-05  7.14260907075E-05  7.44892291353E-05
  7.76047276397E-05  8.07734812429E-05  8.39964002666E-05  8.72744105931E-05
  9.06084539313E-05  9.39994880873E-05  9.74484872396E-05  1.00956442219E-04
  1.04524360793E-04  1.08153267955E-04  1.11844206221E-04  1.15598235926E-04
  1.19416435529E-04  1.23299901926E-04  1.27249750761E-04  1.31267116749E-04
  1.35353154002E-04  1.39509036359E-04  1.43735957726E-04  1.48035132413E-04
  1.52407795493E-04  1.56855203145E-04  1.61378633024E-04  1.65979384623E-04
  1.70658779651E-04  1.75418162406E-04  1.80258900166E-04  1.85182383583E-04
  1.90190027078E-04  1.95283269250E-04  2.00463573288E-04  2.05732427394E-04
  2.11091345208E-04  2.16541866243E-04  2.22085556328E-04  2.27724008058E-04
  2.33458841252E-04  2.39291703415E-04  2.45224270216E-04  2.51258245968E-04
  2.57395364114E-04  2.63637387729E-04  2.69986110027E-04  2.76443354872E-04
  2.83010977306E-04  2.89690864079E-04  2.96484934195E-04  3.03395139457E-04
  3.10423465034E-04  3.17571930028E-04  3.24842588054E-04  3.32237527833E-04
  3.39758873787E-04  3.47408786652E-04  3.55189464102E-04  3.63103141374E-04
  3.71152091915E-04  3.79338628031E-04  3.87665101558E-04  3.96133904529E-04
  4.04747469867E-04  4.13508272084E-04  4.22418827988E-04  4.31481697410E-04
  4.40699483935E-04  4.50074835658E-04  4.59610445933E-04  4.69309054158E-04
  4.79173446555E-04  4.89206456974E-04  4.99410967703E-04  5.09789910301E-04
  5.20346266439E-04  5.31083068752E-04  5.42003401716E-04  5.53110402531E-04
  5.64407262025E-04  5.75897225565E-04  5.87583593996E-04  5.99469724586E-04
  6.11559031991E-04  6.23854989233E-04  6.36361128704E-04  6.49081043175E-04
  6.62018386832E-04  6.75176876324E-04  6.88560291829E-04  7.02172478144E-04
  7.16017345787E-04  7.30098872120E-04  7.44421102494E-04  7.58988151407E-04
  7.73804203692E-04  7.88873515713E-04  8.04200416591E-04  8.19789309451E-04
  8.35644672677E-04  8.51771061210E-04  8.68173107848E-04  8.84855524583E-04
  9.01823103950E-04  9.19080720406E-04  9.36633331730E-04  9.54485980448E-04
  9.72643795281E-04  9.91111992617E-04  1.00989587801E-03  1.02900084771E-03
  1.04843239021E-03  1.06819608780E-03  1.08829761822E-03  1.10874275626E-03
  1.12953737539E-03  1.15068744951E-03  1.17219905464E-03  1.19407837063E-03
  1.21633168299E-03  1.23896538468E-03  1.26198597790E-03  1.28540007604E-03
  1.30921440551E-03  1.33343580770E-03  1.35807124096E-03  1.38312778258E-03
  1.40861263080E-03  1.43453310693E-03  1.46089665743E-03  1.48771085603E-03
  1.51498340594E-03  1.54272214202E-03  1.57093503309E-03  1.59963018415E-03
  1.62881583877E-03  1.65850038143E-03  1.68869233992E-03  1.71940038779E-03
  1.75063334690E-03  1.78240018984E-03  1.81471004264E-03  1.84757218727E-03
  1.88099606441E-03  1.91499127608E-03  1.94956758844E-03  1.98473493462E-03
  2.02050341749E-03  2.05688331266E-03  2.09388507137E-03  2.13151932350E-03
  2.16979688065E-03  2.20872873921E-03  2.24832608357E-03  2.28860028926E-03
  2.32956292630E-03  2.37122576244E-03  2.41360076663E-03  2.45670011237E-03
  2.50053618128E-03  2.54512156660E-03  2.59046907687E-03  2.63659173954E-03
  2.68350280475E-03  2.73121574915E-03  2.77974427976E-03  2.82910233786E-03
  2.87930410308E-03  2.93036399742E-03  2.98229668939E-03  3.03511709825E-03
  3.08884039829E-03  3.14348202316E-03  3.19905767035E-03  3.25558330566E-03
  3.31307516783E-03  3.37154977314E-03  3.43102392022E-03  3.49151469485E-03
  3.55303947484E-03  3.61561593508E-03  3.67926205258E-03  3.74399611163E-03
  3.80983670908E-03  3.87680275965E-03  3.94491350140E-03  4.01418850122E-03
  4.08464766048E-03  4.15631122074E-03  4.22919976954E-03  4.30333424637E-03
  4.37873594861E-03  4.45542653772E-03  4.53342804541E-03  4.61276288003E-03
  4.69345383292E-03  4.77552408503E-03  4.85899721357E-03  4.94389719875E-03
  5.03024843068E-03  5.11807571641E-03  5.20740428702E-03  5.29825980487E-03
  5.39066837100E-03  5.48465653260E-03  5.58025129066E-03  5.67748010769E-03
  5.77637091565E-03  5.87695212396E-03  5.97925262766E-03  6.08330181569E-03
  6.18912957938E-03  6.29676632100E-03  6.40624296249E-03  6.51759095439E-03
  6.63084228481E-03  6.74602948866E-03  6.86318565701E-03  6.98234444655E-03
  7.10354008930E-03  7.22680740242E-03  7.35218179823E-03  7.47969929435E-03
  7.60939652411E-03  7.74131074701E-03  7.87547985944E-03  8.01194240560E-03
  8.15073758854E-03  8.29190528142E-03  8.43548603900E-03  8.58152110925E-03
  8.73005244522E-03  8.88112271708E-03  9.03477532440E-03  9.19105440861E-03
  9.35000486566E-03  9.51167235893E-03  9.67610333238E-03  9.84334502383E-03
  1.00134454786E-02  1.01864535632E-02  1.03624189797E-02  1.05413922793E-02
  1.07234248777E-02  1.09085690693E-02  1.10968780425E-02  1.12884058947E-02
  1.14832076483E-02  1.16813392661E-02  1.18828576673E-02  1.20878207443E-02
  1.22962873791E-02  1.25083174601E-02  1.27239718994E-02  1.29433126503E-02
  1.31664027253E-02  1.33933062138E-02  1.36240883007E-02  1.38588152853E-02
  1.40975546002E-02  1.43403748304E-02  1.45873457336E-02  1.48385382597E-02
  1.50940245715E-02  1.53538780652E-02  1.56181733917E-02  1.58869864780E-02
  1.61603945489E-02  1.64384761491E-02  1.67213111662E-02  1.70089808532E-02
  1.73015678520E-02  1.75991562172E-02  1.79018314402E-02  1.82096804738E-02
  1.85227917569E-02  1.88412552404E-02  1.91651624127E-02  1.94946063261E-02
  1.98296816234E-02  2.01704845652E-02  2.05171130578E-02  2.08696666806E-02
  2.12282467156E-02  2.15929561759E-02  2.19638998354E-02  2.23411842590E-02
  2.27249178334E-02  2.31152107976E-02  2.35121752754E-02  2.39159253069E-02
  2.43265768817E-02  2.47442479721E-02  2.51690585669E-02  2.56011307059E-02
  2.60405885151E-02  2.64875582423E-02  2.69421682931E-02  2.74045492683E-02
  2.78748340010E-02  2.83531575948E-02  2.88396574630E-02  2.93344733674E-02
  2.98377474591E-02  3.03496243190E-02  3.08702509995E-02  3.13997770665E-02
  3.19383546426E-02  3.24861384507E-02  3.30432858585E-02  3.36099569237E-02
  3.41863144399E-02  3.47725239834E-02  3.53687539610E-02  3.59751756579E-02
  3.65919632875E-02  3.72192940407E-02  3.78573481377E-02  3.85063088789E-02
  3.91663626984E-02  3.98376992167E-02  4.05205112959E-02  4.12149950946E-02
  4.19213501246E-02  4.26397793081E-02  4.33704890358E-02  4.41136892265E-02
  4.48695933873E-02  4.56384186747E-02  4.64203859574E-02  4.72157198796E-02
  4.80246489251E-02  4.88474054837E-02  4.96842259174E-02  5.05353506286E-02
  5.14010241289E-02  5.22814951095E-02  5.31770165127E-02  5.40878456045E-02
  5.50142440485E-02  5.59564779809E-02  5.69148180875E-02  5.78895396807E-02
  5.88809227792E-02  5.98892521882E-02  6.09148175812E-02  6.19579135833E-02
  6.30188398558E-02  6.40979011823E-02  6.51954075562E-02  6.63116742698E-02
  6.74470220051E-02  6.86017769254E-02  6.97762707694E-02  7.09708409466E-02
  7.21858306338E-02  7.34215888741E-02  7.46784706768E-02  7.59568371198E-02
  7.72570554531E-02  7.85794992042E-02  7.99245482855E-02  8.12925891038E-02
  8.26840146706E-02  8.40992247155E-02  8.55386258011E-02  8.70026314394E-02
  8.84916622109E-02  9.00061458853E-02  9.15465175445E-02  9.31132197074E-02
  9.47067024574E-02  9.63274235710E-02  9.79758486502E-02  9.96524512555E-02
  1.01357713043E-01  1.03092123900E-01  1.04856182090E-01  1.06650394393E-01
  1.08475276252E-01  1.10331351919E-01  1.12219154609E-01  1.14139226652E-01
  1.16092119646E-01  1.18078394621E-01  1.20098622194E-01  1.22153382739E-01
  1.24243266547E-01  1.26368874002E-01  1.28530815750E-01  1.30729712875E-01
  1.32966197077E-01  1.35240910856E-01  1.37554507692E-01  1.39907652237E-01
  1.42301020504E-01  1.44735300062E-01  1.47211190231E-01  1.49729402287E-01
  1.52290659664E-01  1.54895698161E-01  1.57545266156E-01  1.60240124817E-01
  1.62981048327E-01  1.65768824098E-01  1.68604253006E-01  1.71488149614E-01
  1.74421342410E-01  1.77404674042E-01  1.80439001566E-01  1.83525196684E-01
  1.86664146000E-01  1.89856751274E-01  1.93103929679E-01  1.96406614068E-01
  1.99765753237E-01  2.03182312201E-01  2.06657272474E-01  2.10191632342E-01
  2.13786407160E-01  2.17442629636E-01  2.21161350133E-01  2.24943636967E-01
  2.28790576715E-01  2.32703274530E-01  2.36682854453E-01  2.40730459742E-01
  2.44847253193E-01  2.49034417483E-01  2.53293155504E-01  2.57624690707E-01
  2.62030267459E-01  2.66511151397E-01  2.71068629793E-01  2.75704011921E-01
  2.80418629438E-01  2.85213836761E-01  2.90091011461E-01  2.95051554656E-01
  3.00096891414E-01  3.05228471163E-01  3.10447768106E-01  3.15756281645E-01
  3.21155536815E-01  3.26647084717E-01  3.32232502967E-01  3.37913396146E-01
  3.43691396265E-01  3.49568163233E-01  3.55545385331E-01  3.61624779698E-01
  3.67808092828E-01  3.74097101066E-01  3.80493611122E-01  3.86999460592E-01
  3.93616518478E-01  4.00346685734E-01  4.07191895806E-01  4.14154115192E-01
  4.21235344001E-01  4.28437616534E-01  4.35763001864E-01  4.43213604433E-01
  4.50791564655E-01  4.58499059531E-01  4.66338303276E-01  4.74311547951E-01
  4.82421084117E-01  4.90669241486E-01  4.99058389593E-01  5.07590938480E-01
  5.16269339381E-01  5.25096085435E-01  5.34073712393E-01  5.43204799355E-01
  5.52491969505E-01  5.61937890868E-01  5.71545277073E-01  5.81316888137E-01
  5.91255531255E-01  6.01364061607E-01  6.11645383177E-01  6.22102449591E-01
  6.32738264961E-01  6.43555884752E-01  6.54558416656E-01  6.65749021487E-01
  6.77130914090E-01  6.88707364262E-01  7.00481697694E-01  7.12457296923E-01
  7.24637602308E-01  7.37026113015E-01  7.49626388022E-01  7.62442047146E-01
  7.75476772076E-01  7.88734307438E-01  8.02218461865E-01  8.15933109092E-01
  8.29882189074E-01  8.44069709111E-01  8.58499745002E-01  8.73176442218E-01
  8.88104017090E-01  9.03286758021E-01  9.18729026719E-01  9.34435259449E-01
  9.50409968308E-01  9.66657742521E-01  9.83183249757E-01  9.99991237477E-01
  1.01708653429E+00  1.03447405134E+00  1.05215878373E+00  1.07014581194E+00
  1.08844030330E+00  1.10704751345E+00  1.12597278789E+00  1.14522156349E+00
  1.16479937004E+00  1.18471183187E+00  1.20496466944E+00  1.22556370101E+00
  1.24651484427E+00  1.26782411809E+00  1.28949764421E+00  1.31154164900E+00
  1.33396246530E+00  1.35676653415E+00  1.37996040674E+00  1.40355074621E+00
  1.42754432962E+00  1.45194804984E+00  1.47676891760E+00  1.50201406346E+00
  1.52769073985E+00  1.55380632319E+00  1.58036831598E+00  1.60738434897E+00
  1.63486218334E+00  1.66280971294E+00  1.69123496655E+00  1.72014611020E+00
  1.74955144950E+00  1.77945943204E+00  1.80987864981E+00  1.84081784164E+00
  1.87228589578E+00  1.90429185239E+00  1.93684490616E+00  1.96995440896E+00
  2.00362987249E+00  2.03788097108E+00  2.07271754439E+00  2.10814960031E+00
  2.14418731778E+00  2.18084104972E+00  2.21812132607E+00  2.25603885671E+00
  2.29460453461E+00  2.33382943896E+00  2.37372483830E+00  2.41430219382E+00
  2.45557316260E+00  2.49754960099E+00  2.54024356802E+00  2.58366732882E+00
  2.62783335822E+00  2.67275434424E+00  2.71844319184E+00  2.76491302651E+00
  2.81217719816E+00  2.86024928486E+00  2.90914309679E+00  2.95887268020E+00
  3.00945232143E+00  3.06089655105E+00  3.11322014797E+00  3.16643814375E+00
  3.22056582690E+00  3.27561874726E+00  3.33161272046E+00  3.38856383248E+00
  3.44648844428E+00  3.50540319647E+00  3.56532501414E+00  3.62627111165E+00
  3.68825899764E+00  3.75130648003E+00  3.81543167114E+00  3.88065299290E+00
  3.94698918213E+00  4.01445929593E+00  4.08308271717E+00  4.15287916003E+00
  4.22386867566E+00  4.29607165799E+00  4.36950884954E+00  4.44420134739E+00
  4.52017060924E+00  4.59743845960E+00  4.67602709603E+00  4.75595909552E+00
  4.83725742099E+00  4.91994542787E+00  5.00404687082E+00  5.08958591057E+00
  5.17658712083E+00  5.26507549535E+00  5.35507645514E+00  5.44661585574E+00
  5.53971999463E+00  5.63441561884E+00  5.73072993258E+00  5.82869060510E+00
  5.92832577861E+00  6.02966407635E+00  6.13273461086E+00  6.23756699232E+00
  6.34419133703E+00  6.45263827610E+00  6.56293896425E+00  6.67512508873E+00
  6.78922887844E+00  6.90528311318E+00  7.02332113310E+00  7.14337684824E+00
  7.26548474828E+00  7.38967991245E+00  7.51599801962E+00  7.64447535855E+00
  7.77514883828E+00  7.90805599878E+00  8.04323502169E+00  8.18072474135E+00
  8.32056465588E+00  8.46279493859E+00  8.60745644949E+00  8.75459074702E+00
  8.90424010002E+00  9.05644749986E+00  9.21125667278E+00  9.36871209245E+00
  9.52885899278E+00  9.69174338087E+00  9.85741205024E+00  1.00259125943E+01
  1.01972934200E+01  1.03716037618E+01  1.05488936955E+01  1.07292141533E+01
  1.09126169376E+01  1.10991547366E+01  1.12888811389E+01  1.14818506492E+01
  1.16781187041E+01  1.18777416874E+01  1.20807769470E+01  1.22872828110E+01
  1.24973186046E+01  1.27109446669E+01  1.29282223686E+01  1.31492141294E+01
  1.33739834360E+01  1.36025948601E+01  1.38351140775E+01  1.40716078864E+01
  1.43121442269E+01  1.45567922004E+01  1.48056220896E+01  1.50587053785E+01
  1.53161147731E+01  1.55779242219E+01  1.58442089379E+01  1.61150454196E+01
  1.63905114728E+01  1.66706862339E+01  1.69556501914E+01  1.72454852101E+01
  1.75402745539E+01  1.78401029102E+01  1.81450564138E+01  1.84552226719E+01
  1.87706907893E+01  1.90915513939E+01  1.94178966628E+01  1.97498203486E+01
  2.00874178065E+01  2.04307860219E+01  2.07800236376E+01  2.11352309830E+01
  2.14965101023E+01  2.18639647839E+01  2.22377005904E+01  2.26178248890E+01
  2.30044468819E+01  2.33976776383E+01  2.37976301256E+01  2.42044192425E+01
  2.46181618516E+01  2.50389768133E+01  2.54669850194E+01  2.59023094284E+01
  2.63450751007E+01  2.67954092342E+01  2.72534412012E+01  2.77193025855E+01
  2.81931272200E+01  2.86750512253E+01  2.91652130489E+01  2.96637535048E+01
  3.01708158141E+01  3.06865456458E+01  3.12110911593E+01  3.17446030462E+01
  3.22872345743E+01  3.28391416311E+01  3.34004827687E+01  3.39714192497E+01
  3.45521150930E+01  3.51427371213E+01  3.57434550089E+01  3.63544413305E+01
  3.69758716105E+01  3.76079243738E+01  3.82507811971E+01  3.89046267606E+01
  3.95696489014E+01  4.02460386676E+01  4.09339903730E+01  4.16337016526E+01
  4.23453735200E+01  4.30692104247E+01  4.38054203112E+01  4.45542146782E+01
  4.53158086398E+01  4.60904209874E+01  4.68782742519E+01  4.76795947685E+01
  4.84946127410E+01  4.93235623083E+01  5.01666816115E+01  5.10242128626E+01
  5.18964024136E+01  5.27835008278E+01  5.36857629512E+01  5.46034479865E+01
  5.55368195667E+01  5.64861458315E+01  5.74516995039E+01  5.84337579687E+01
  5.94326033525E+01  6.04485226040E+01  6.14818075774E+01  6.25327551153E+01
  6.36016671346E+01  6.46888507132E+01  6.57946181777E+01  6.69192871938E+01
  6.80631808571E+01  6.92266277862E+01  7.04099622168E+01  7.16135240980E+01
  7.28376591898E+01  7.40827191627E+01  7.53490616981E+01  7.66370505919E+01
  7.79470558582E+01  7.92794538364E+01  8.06346272984E+01  8.20129655595E+01
  8.34148645896E+01  8.48407271270E+01  8.62909627946E+01  8.77659882169E+01
  8.92662271403E+01  9.07921105543E+01  9.23440768158E+01  9.39225717745E+01
  9.55280489016E+01  9.71609694195E+01  9.88218024348E+01  1.00511025073E+02
  1.02229122614E+02  1.03976588635E+02  1.05753925149E+02  1.07561642750E+02
  1.09400260760E+02  1.11270307380E+02  1.13172319836E+02  1.15106844541E+02
  1.17074437246E+02  1.19075663202E+02  1.21111097323E+02  1.23181324350E+02
  1.25286939018E+02  1.27428546231E+02  1.29606761230E+02  1.31822209774E+02
  1.34075528320E+02  1.36367364201E+02  1.38698375818E+02  1.41069232826E+02
  1.43480616325E+02  1.45933219060E+02  1.48427745615E+02  1.50964912621E+02
  1.53545448956E+02  1.56170095958E+02  1.58839607637E+02  1.61554750893E+02
  1.64316305734E+02  1.67125065501E+02  1.69981837096E+02  1.72887441214E+02
  1.75842712580E+02  1.78848500185E+02  1.81905667535E+02  1.85015092893E+02
  1.88177669539E+02  1.91394306019E+02  1.94665926410E+02  1.97993470586E+02
  2.01377894485E+02
  </PP_R>
  <PP_RAB>
  1.82664125031E-06  1.85786513320E-06  1.88962274479E-06  1.92192320842E-06
  1.95477580341E-06  1.98818996766E-06  2.02217530041E-06  2.05674156500E-06
  2.09189869163E-06  2.12765678028E-06  2.16402610356E-06  2.20101710965E-06
  2.23864042537E-06  2.27690685917E-06  2.31582740424E-06  2.35541324172E-06
  2.39567574384E-06  2.43662647724E-06  2.47827720628E-06  2.52063989641E-06
  2.56372671760E-06  2.60755004786E-06  2.65212247680E-06  2.69745680920E-06
  2.74356606875E-06  2.79046350173E-06  2.83816258089E-06  2.88667700923E-06
  2.93602072402E-06  2.98620790074E-06  3.03725295721E-06  3.08917055769E-06
  3.14197561708E-06  3.19568330527E-06  3.25030905144E-06  3.30586854849E-06
  3.36237775762E-06  3.41985291280E-06  3.47831052555E-06  3.53776738961E-06
  3.59824058578E-06  3.65974748684E-06  3.72230576254E-06  3.78593338465E-06
  3.85064863216E-06  3.91647009650E-06  3.98341668693E-06  4.05150763588E-06
  4.12076250457E-06  4.19120118860E-06  4.26284392362E-06  4.33571129121E-06
  4.40982422476E-06  4.48520401547E-06  4.56187231850E-06  4.63985115918E-06
  4.71916293930E-06  4.79983044362E-06  4.88187684635E-06  4.96532571782E-06
  5.05020103129E-06  5.13652716979E-06  5.22432893315E-06  5.31363154512E-06
  5.40446066061E-06  5.49684237306E-06  5.59080322196E-06  5.68637020044E-06
  5.78357076304E-06  5.88243283361E-06  5.98298481330E-06  6.08525558874E-06
  6.18927454037E-06  6.29507155080E-06  6.40267701347E-06  6.51212184136E-06
  6.62343747583E-06  6.73665589572E-06  6.85180962649E-06  6.96893174958E-06
  7.08805591190E-06  7.20921633553E-06  7.33244782750E-06  7.45778578985E-06
  7.58526622974E-06  7.71492576984E-06  7.84680165882E-06  7.98093178207E-06
  8.11735467259E-06  8.25610952203E-06  8.39723619197E-06  8.54077522537E-06
  8.68676785823E-06  8.83525603139E-06  8.98628240265E-06  9.13989035894E-06
  9.29612402887E-06  9.45502829535E-06  9.61664880849E-06  9.78103199875E-06
  9.94822509023E-06  1.01182761143E-05  1.02912339232E-05  1.04671482046E-05
  1.06460694950E-05  1.08280491953E-05  1.10131395845E-05  1.12013938356E-05
  1.13928660304E-05  1.15876111751E-05  1.17856852163E-05  1.19871450569E-05
  1.21920485722E-05  1.24004546271E-05  1.26124230927E-05  1.28280148634E-05
  1.30472918746E-05  1.32703171202E-05  1.34971546711E-05  1.37278696934E-05
  1.39625284670E-05  1.42011984049E-05  1.44439480722E-05  1.46908472064E-05
  1.49419667366E-05  1.51973788048E-05  1.54571567858E-05  1.57213753088E-05
  1.59901102787E-05  1.62634388979E-05  1.65414396884E-05  1.68241925144E-05
  1.71117786054E-05  1.74042805792E-05  1.77017824661E-05  1.80043697325E-05
  1.83121293059E-05  1.86251495997E-05  1.89435205386E-05  1.92673335844E-05
  1.95966817623E-05  1.99316596876E-05  2.02723635931E-05  2.06188913563E-05
  2.09713425281E-05  2.13298183607E-05  2.16944218374E-05  2.20652577017E-05
  2.24424324875E-05  2.28260545499E-05  2.32162340961E-05  2.36130832171E-05
  2.40167159199E-05  2.44272481605E-05  2.48447978768E-05  2.52694850228E-05
  2.57014316028E-05  2.61407617068E-05  2.65876015458E-05  2.70420794882E-05
  2.75043260967E-05  2.79744741660E-05  2.84526587603E-05  2.89390172529E-05
  2.94336893651E-05  2.99368172068E-05  3.04485453167E-05  3.09690207045E-05
  3.14983928926E-05  3.20368139595E-05  3.25844385832E-05  3.31414240855E-05
  3.37079304776E-05  3.42841205058E-05  3.48701596985E-05  3.54662164133E-05
  3.60724618857E-05  3.66890702785E-05  3.73162187311E-05  3.79540874113E-05
  3.86028595663E-05  3.92627215760E-05  3.99338630057E-05  4.06164766616E-05
  4.13107586452E-05  4.20169084104E-05  4.27351288203E-05  4.34656262057E-05
  4.42086104245E-05  4.49642949216E-05  4.57328967905E-05  4.65146368357E-05
  4.73097396359E-05  4.81184336089E-05  4.89409510767E-05  4.97775283327E-05
  5.06284057093E-05  5.14938276472E-05  5.23740427654E-05  5.32693039325E-05
  5.41798683399E-05  5.51059975750E-05  5.60479576969E-05  5.70060193124E-05
  5.79804576542E-05  5.89715526595E-05  5.99795890507E-05  6.10048564172E-05
  6.20476492984E-05  6.31082672686E-05  6.41870150228E-05  6.52842024644E-05
  6.64001447940E-05  6.75351626003E-05  6.86895819520E-05  6.98637344913E-05
  7.10579575297E-05  7.22725941442E-05  7.35079932765E-05  7.47645098328E-05
  7.60425047860E-05  7.73423452794E-05  7.86644047319E-05  8.00090629457E-05
  8.13767062150E-05  8.27677274373E-05  8.41825262261E-05  8.56215090257E-05
  8.70850892279E-05  8.85736872911E-05  9.00877308607E-05  9.16276548921E-05
  9.31939017757E-05  9.47869214639E-05  9.64071716004E-05  9.80551176518E-05
  9.97312330410E-05  1.01435999284E-04  1.03169906126E-04  1.04933451686E-04
  1.06727142596E-04  1.08551494149E-04  1.10407030445E-04  1.12294284545E-04
  1.14213798620E-04  1.16166124109E-04  1.18151821878E-04  1.20171462378E-04
  1.22225625815E-04  1.24314902308E-04  1.26439892068E-04  1.28601205561E-04
  1.30799463693E-04  1.33035297979E-04  1.35309350732E-04  1.37622275243E-04
  1.39974735971E-04  1.42367408732E-04  1.44800980894E-04  1.47276151577E-04
  1.49793631847E-04  1.52354144930E-04  1.54958426410E-04  1.57607224447E-04
  1.60301299990E-04  1.63041426995E-04  1.65828392647E-04  1.68662997586E-04
  1.71546056142E-04  1.74478396560E-04  1.77460861244E-04  1.80494307001E-04
  1.83579605278E-04  1.86717642424E-04  1.89909319936E-04  1.93155554720E-04
  1.96457279358E-04  1.99815442370E-04  2.03231008492E-04  2.06704958950E-04
  2.10238291743E-04  2.13832021929E-04  2.17487181917E-04  2.21204821764E-04
  2.24986009476E-04  2.28831831314E-04  2.32743392110E-04  2.36721815578E-04
  2.40768244643E-04  2.44883841766E-04  2.49069789278E-04  2.53327289720E-04
  2.57657566191E-04  2.62061862695E-04  2.66541444500E-04  2.71097598505E-04
  2.75731633604E-04  2.80444881066E-04  2.85238694915E-04  2.90114452321E-04
  2.95073553996E-04  3.00117424593E-04  3.05247513119E-04  3.10465293348E-04
  3.15772264248E-04  3.21169950409E-04  3.26659902482E-04  3.32243697624E-04
  3.37922939951E-04  3.43699261000E-04  3.49574320195E-04  3.55549805329E-04
  3.61627433041E-04  3.67808949316E-04  3.74096129986E-04  3.80490781234E-04
  3.86994740121E-04  3.93609875108E-04  4.00338086596E-04  4.07181307469E-04
  4.14141503653E-04  4.21220674676E-04  4.28420854248E-04  4.35744110842E-04
  4.43192548286E-04  4.50768306374E-04  4.58473561473E-04  4.66310527154E-04
  4.74281454827E-04  4.82388634383E-04  4.90634394860E-04  4.99021105104E-04
  5.07551174455E-04  5.16227053437E-04  5.25051234462E-04  5.34026252547E-04
  5.43154686040E-04  5.52439157364E-04  5.61882333767E-04  5.71486928092E-04
  5.81255699553E-04  5.91191454529E-04  6.01297047369E-04  6.11575381215E-04
  6.22029408834E-04  6.32662133466E-04  6.43476609685E-04  6.54475944283E-04
  6.65663297155E-04  6.77041882212E-04  6.88614968299E-04  7.00385880142E-04
  7.12357999295E-04  7.24534765116E-04  7.36919675755E-04  7.49516289157E-04
  7.62328224085E-04  7.75359161160E-04  7.88612843919E-04  8.02093079887E-04
  8.15803741675E-04  8.29748768093E-04  8.43932165275E-04  8.58358007837E-04
  8.73030440045E-04  8.87953677004E-04  9.03132005872E-04  9.18569787089E-04
  9.34271455631E-04  9.50241522283E-04  9.66484574937E-04  9.83005279906E-04
  9.99808383271E-04  1.01689871224E-03  1.03428117652E-03  1.05196076978E-03
  1.06994257101E-03  1.08823174603E-03  1.10683354898E-03  1.12575332379E-03
  1.14499650574E-03  1.16456862304E-03  1.18447529836E-03  1.20472225052E-03
  1.22531529606E-03  1.24626035098E-03  1.26756343238E-03  1.28923066023E-03
  1.31126825910E-03  1.33368255996E-03  1.35648000202E-03  1.37966713453E-03
  1.40325061872E-03  1.42723722965E-03  1.45163385822E-03  1.47644751310E-03
  1.50168532279E-03  1.52735453761E-03  1.55346253184E-03  1.58001680578E-03
  1.60702498799E-03  1.63449483737E-03  1.66243424549E-03  1.69085123880E-03
  1.71975398095E-03  1.74915077515E-03  1.77905006651E-03  1.80946044453E-03
  1.84039064552E-03  1.87184955513E-03  1.90384621090E-03  1.93638980484E-03
  1.96948968610E-03  2.00315536364E-03  2.03739650895E-03  2.07222295885E-03
  2.10764471831E-03  2.14367196331E-03  2.18031504379E-03  2.21758448659E-03
  2.25549099849E-03  2.29404546932E-03  2.33325897501E-03  2.37314278086E-03
  2.41370834471E-03  2.45496732026E-03  2.49693156042E-03  2.53961312069E-03
  2.58302426267E-03  2.62717745754E-03  2.67208538965E-03  2.71776096019E-03
  2.76421729086E-03  2.81146772766E-03  2.85952584475E-03  2.90840544827E-03
  2.95812058040E-03  3.00868552333E-03  3.06011480338E-03  3.11242319521E-03
  3.16562572599E-03  3.21973767979E-03  3.27477460192E-03  3.33075230342E-03
  3.38768686560E-03  3.44559464466E-03  3.50449227640E-03  3.56439668094E-03
  3.62532506769E-03  3.68729494016E-03  3.75032410113E-03  3.81443065763E-03
  3.87963302625E-03  3.94594993837E-03  4.01340044554E-03  4.08200392501E-03
  4.15178008520E-03  4.22274897148E-03  4.29493097182E-03  4.36834682272E-03
  4.44301761513E-03  4.51896480053E-03  4.59621019706E-03  4.67477599585E-03
  4.75468476732E-03  4.83595946771E-03  4.91862344568E-03  5.00270044899E-03
  5.08821463133E-03  5.17519055927E-03  5.26365321931E-03  5.35362802507E-03
  5.44514082456E-03  5.53821790765E-03  5.63288601356E-03  5.72917233863E-03
  5.82710454405E-03  5.92671076385E-03  6.02801961296E-03  6.13106019545E-03
  6.23586211291E-03  6.34245547287E-03  6.45087089756E-03  6.56113953263E-03
  6.67329305613E-03  6.78736368759E-03  6.90338419729E-03  7.02138791568E-03
  7.14140874296E-03  7.26348115877E-03  7.38764023217E-03  7.51392163165E-03
  7.64236163541E-03  7.77299714178E-03  7.90586567982E-03  8.04100542008E-03
  8.17845518560E-03  8.31825446304E-03  8.46044341402E-03  8.60506288667E-03
  8.75215442737E-03  8.90176029269E-03  9.05392346147E-03  9.20868764727E-03
  9.36609731083E-03  9.52619767290E-03  9.68903472723E-03  9.85465525375E-03
  1.00231068320E-02  1.01944378549E-02  1.03686975426E-02  1.05459359564E-02
  1.07262040135E-02  1.09095535015E-02  1.10960370930E-02  1.12857083614E-02
  1.14786217953E-02  1.16748328152E-02  1.18743977886E-02  1.20773740467E-02
  1.22838199007E-02  1.24937946585E-02  1.27073586416E-02  1.29245732030E-02
  1.31455007442E-02  1.33702047334E-02  1.35987497237E-02  1.38312013716E-02
  1.40676264561E-02  1.43080928974E-02  1.45526697769E-02  1.48014273568E-02
  1.50544371004E-02  1.53117716925E-02  1.55735050602E-02  1.58397123946E-02
  1.61104701719E-02  1.63858561755E-02  1.66659495185E-02  1.69508306663E-02
  1.72405814597E-02  1.75352851386E-02  1.78350263655E-02  1.81398912505E-02
  1.84499673751E-02  1.87653438184E-02  1.90861111818E-02  1.94123616156E-02
  1.97441888452E-02  2.00816881983E-02  2.04249566318E-02  2.07740927600E-02
  2.11291968832E-02  2.14903710157E-02  2.18577189160E-02  2.22313461159E-02
  2.26113599514E-02  2.29978695930E-02  2.33909860776E-02  2.37908223398E-02
  2.41974932449E-02  2.46111156216E-02  2.50318082955E-02  2.54596921236E-02
  2.58948900286E-02  2.63375270343E-02  2.67877303020E-02  2.72456291662E-02
  2.77113551724E-02  2.81850421147E-02  2.86668260743E-02  2.91568454582E-02
  2.96552410396E-02  3.01621559979E-02  3.06777359600E-02  3.12021290420E-02
  3.17354858918E-02  3.22779597327E-02  3.28297064067E-02  3.33908844202E-02
  3.39616549886E-02  3.45421820833E-02  3.51326324784E-02  3.57331757991E-02
  3.63439845696E-02  3.69652342637E-02  3.75971033543E-02  3.82397733651E-02
  3.88934289228E-02  3.95582578100E-02  4.02344510193E-02  4.09222028077E-02
  4.16217107531E-02  4.23331758106E-02  4.30568023703E-02  4.37927983162E-02
  4.45413750856E-02  4.53027477301E-02  4.60771349775E-02  4.68647592940E-02
  4.76658469491E-02  4.84806280795E-02  4.93093367563E-02  5.01522110514E-02
  5.10094931062E-02  5.18814292013E-02  5.27682698271E-02  5.36702697557E-02
  5.45876881142E-02  5.55207884592E-02  5.64698388524E-02  5.74351119375E-02
  5.84168850188E-02  5.94154401408E-02  6.04310641690E-02  6.14640488726E-02
  6.25146910080E-02  6.35832924044E-02  6.46701600504E-02  6.57756061819E-02